PSF CMAP

       1 !NTITLE
 REMARKS VMD-generated NAMD/X-Plor PSF structure file

   27044 !NATOM
       1 P    1    GLN  CAY  CT3           -0.27        12.011       0
       2 P    1    GLN  HY1  HA3            0.09         1.008       0
       3 P    1    GLN  HY2  HA3            0.09         1.008       0
       4 P    1    GLN  HY3  HA3            0.09         1.008       0
       5 P    1    GLN  CY   C              0.51        12.011       0
       6 P    1    GLN  OY   O             -0.51        15.999       0
       7 P    1    GLN  N    NH1           -0.47        14.007       0
       8 P    1    GLN  HN   H              0.31         1.008       0
       9 P    1    GLN  CA   CT1            0.07        12.011       0
      10 P    1    GLN  HA   HB1            0.09         1.008       0
      11 P    1    GLN  CB   CT2           -0.18        12.011       0
      12 P    1    GLN  HB1  HA2            0.09         1.008       0
      13 P    1    GLN  HB2  HA2            0.09         1.008       0
      14 P    1    GLN  CG   CT2           -0.18        12.011       0
      15 P    1    GLN  HG1  HA2            0.09         1.008       0
      16 P    1    GLN  HG2  HA2            0.09         1.008       0
      17 P    1    GLN  CD   CC             0.55        12.011       0
      18 P    1    GLN  OE1  O             -0.55        15.999       0
      19 P    1    GLN  NE2  NH2           -0.62        14.007       0
      20 P    1    GLN  HE21 H              0.32         1.008       0
      21 P    1    GLN  HE22 H               0.3         1.008       0
      22 P    1    GLN  C    C              0.51        12.011       0
      23 P    1    GLN  O    O             -0.51        15.999       0
      24 P    2    ALA  N    NH1           -0.47        14.007       0
      25 P    2    ALA  HN   H              0.31         1.008       0
      26 P    2    ALA  CA   CT1            0.07        12.011       0
      27 P    2    ALA  HA   HB1            0.09         1.008       0
      28 P    2    ALA  CB   CT3           -0.27        12.011       0
      29 P    2    ALA  HB1  HA3            0.09         1.008       0
      30 P    2    ALA  HB2  HA3            0.09         1.008       0
      31 P    2    ALA  HB3  HA3            0.09         1.008       0
      32 P    2    ALA  C    C              0.51        12.011       0
      33 P    2    ALA  O    O             -0.51        15.999       0
      34 P    3    PRO  N    N             -0.29        14.007       0
      35 P    3    PRO  CD   CP3               0        12.011       0
      36 P    3    PRO  HD1  HA2            0.09         1.008       0
      37 P    3    PRO  HD2  HA2            0.09         1.008       0
      38 P    3    PRO  CA   CP1            0.02        12.011       0
      39 P    3    PRO  HA   HB1            0.09         1.008       0
      40 P    3    PRO  CB   CP2           -0.18        12.011       0
      41 P    3    PRO  HB1  HA2            0.09         1.008       0
      42 P    3    PRO  HB2  HA2            0.09         1.008       0
      43 P    3    PRO  CG   CP2           -0.18        12.011       0
      44 P    3    PRO  HG1  HA2            0.09         1.008       0
      45 P    3    PRO  HG2  HA2            0.09         1.008       0
      46 P    3    PRO  C    C              0.51        12.011       0
      47 P    3    PRO  O    O             -0.51        15.999       0
      48 P    4    ALA  N    NH1           -0.47        14.007       0
      49 P    4    ALA  HN   H              0.31         1.008       0
      50 P    4    ALA  CA   CT1            0.07        12.011       0
      51 P    4    ALA  HA   HB1            0.09         1.008       0
      52 P    4    ALA  CB   CT3           -0.27        12.011       0
      53 P    4    ALA  HB1  HA3            0.09         1.008       0
      54 P    4    ALA  HB2  HA3            0.09         1.008       0
      55 P    4    ALA  HB3  HA3            0.09         1.008       0
      56 P    4    ALA  C    C              0.51        12.011       0
      57 P    4    ALA  O    O             -0.51        15.999       0
      58 P    5    TYR  N    NH1           -0.47        14.007       0
      59 P    5    TYR  HN   H              0.31         1.008       0
      60 P    5    TYR  CA   CT1            0.07        12.011       0
      61 P    5    TYR  HA   HB1            0.09         1.008       0
      62 P    5    TYR  CB   CT2           -0.18        12.011       0
      63 P    5    TYR  HB1  HA2            0.09         1.008       0
      64 P    5    TYR  HB2  HA2            0.09         1.008       0
      65 P    5    TYR  CG   CA                0        12.011       0
      66 P    5    TYR  CD1  CA           -0.115        12.011       0
      67 P    5    TYR  HD1  HP            0.115         1.008       0
      68 P    5    TYR  CE1  CA           -0.115        12.011       0
      69 P    5    TYR  HE1  HP            0.115         1.008       0
      70 P    5    TYR  CZ   CA             0.11        12.011       0
      71 P    5    TYR  OH   OH1           -0.54        15.999       0
      72 P    5    TYR  HH   H              0.43         1.008       0
      73 P    5    TYR  CD2  CA           -0.115        12.011       0
      74 P    5    TYR  HD2  HP            0.115         1.008       0
      75 P    5    TYR  CE2  CA           -0.115        12.011       0
      76 P    5    TYR  HE2  HP            0.115         1.008       0
      77 P    5    TYR  C    C              0.51        12.011       0
      78 P    5    TYR  O    O             -0.51        15.999       0
      79 P    6    LYS  N    NH1           -0.47        14.007       0
      80 P    6    LYS  HN   H              0.31         1.008       0
      81 P    6    LYS  CA   CT1            0.07        12.011       0
      82 P    6    LYS  HA   HB1            0.09         1.008       0
      83 P    6    LYS  CB   CT2           -0.18        12.011       0
      84 P    6    LYS  HB1  HA2            0.09         1.008       0
      85 P    6    LYS  HB2  HA2            0.09         1.008       0
      86 P    6    LYS  CG   CT2           -0.18        12.011       0
      87 P    6    LYS  HG1  HA2            0.09         1.008       0
      88 P    6    LYS  HG2  HA2            0.09         1.008       0
      89 P    6    LYS  CD   CT2           -0.18        12.011       0
      90 P    6    LYS  HD1  HA2            0.09         1.008       0
      91 P    6    LYS  HD2  HA2            0.09         1.008       0
      92 P    6    LYS  CE   CT2            0.21        12.011       0
      93 P    6    LYS  HE1  HA2            0.05         1.008       0
      94 P    6    LYS  HE2  HA2            0.05         1.008       0
      95 P    6    LYS  NZ   NH3            -0.3        14.007       0
      96 P    6    LYS  HZ1  HC             0.33         1.008       0
      97 P    6    LYS  HZ2  HC             0.33         1.008       0
      98 P    6    LYS  HZ3  HC             0.33         1.008       0
      99 P    6    LYS  C    C              0.51        12.011       0
     100 P    6    LYS  O    O             -0.51        15.999       0
     101 P    7    LYS  N    NH1           -0.47        14.007       0
     102 P    7    LYS  HN   H              0.31         1.008       0
     103 P    7    LYS  CA   CT1            0.07        12.011       0
     104 P    7    LYS  HA   HB1            0.09         1.008       0
     105 P    7    LYS  CB   CT2           -0.18        12.011       0
     106 P    7    LYS  HB1  HA2            0.09         1.008       0
     107 P    7    LYS  HB2  HA2            0.09         1.008       0
     108 P    7    LYS  CG   CT2           -0.18        12.011       0
     109 P    7    LYS  HG1  HA2            0.09         1.008       0
     110 P    7    LYS  HG2  HA2            0.09         1.008       0
     111 P    7    LYS  CD   CT2           -0.18        12.011       0
     112 P    7    LYS  HD1  HA2            0.09         1.008       0
     113 P    7    LYS  HD2  HA2            0.09         1.008       0
     114 P    7    LYS  CE   CT2            0.21        12.011       0
     115 P    7    LYS  HE1  HA2            0.05         1.008       0
     116 P    7    LYS  HE2  HA2            0.05         1.008       0
     117 P    7    LYS  NZ   NH3            -0.3        14.007       0
     118 P    7    LYS  HZ1  HC             0.33         1.008       0
     119 P    7    LYS  HZ2  HC             0.33         1.008       0
     120 P    7    LYS  HZ3  HC             0.33         1.008       0
     121 P    7    LYS  C    C              0.51        12.011       0
     122 P    7    LYS  O    O             -0.51        15.999       0
     123 P    8    ALA  N    NH1           -0.47        14.007       0
     124 P    8    ALA  HN   H              0.31         1.008       0
     125 P    8    ALA  CA   CT1            0.07        12.011       0
     126 P    8    ALA  HA   HB1            0.09         1.008       0
     127 P    8    ALA  CB   CT3           -0.27        12.011       0
     128 P    8    ALA  HB1  HA3            0.09         1.008       0
     129 P    8    ALA  HB2  HA3            0.09         1.008       0
     130 P    8    ALA  HB3  HA3            0.09         1.008       0
     131 P    8    ALA  C    C              0.51        12.011       0
     132 P    8    ALA  O    O             -0.51        15.999       0
     133 P    9    ALA  N    NH1           -0.47        14.007       0
     134 P    9    ALA  HN   H              0.31         1.008       0
     135 P    9    ALA  CA   CT1            0.07        12.011       0
     136 P    9    ALA  HA   HB1            0.09         1.008       0
     137 P    9    ALA  CB   CT3           -0.27        12.011       0
     138 P    9    ALA  HB1  HA3            0.09         1.008       0
     139 P    9    ALA  HB2  HA3            0.09         1.008       0
     140 P    9    ALA  HB3  HA3            0.09         1.008       0
     141 P    9    ALA  C    C              0.51        12.011       0
     142 P    9    ALA  O    O             -0.51        15.999       0
     143 P    10   LYS  N    NH1           -0.47        14.007       0
     144 P    10   LYS  HN   H              0.31         1.008       0
     145 P    10   LYS  CA   CT1            0.07        12.011       0
     146 P    10   LYS  HA   HB1            0.09         1.008       0
     147 P    10   LYS  CB   CT2           -0.18        12.011       0
     148 P    10   LYS  HB1  HA2            0.09         1.008       0
     149 P    10   LYS  HB2  HA2            0.09         1.008       0
     150 P    10   LYS  CG   CT2           -0.18        12.011       0
     151 P    10   LYS  HG1  HA2            0.09         1.008       0
     152 P    10   LYS  HG2  HA2            0.09         1.008       0
     153 P    10   LYS  CD   CT2           -0.18        12.011       0
     154 P    10   LYS  HD1  HA2            0.09         1.008       0
     155 P    10   LYS  HD2  HA2            0.09         1.008       0
     156 P    10   LYS  CE   CT2            0.21        12.011       0
     157 P    10   LYS  HE1  HA2            0.05         1.008       0
     158 P    10   LYS  HE2  HA2            0.05         1.008       0
     159 P    10   LYS  NZ   NH3            -0.3        14.007       0
     160 P    10   LYS  HZ1  HC             0.33         1.008       0
     161 P    10   LYS  HZ2  HC             0.33         1.008       0
     162 P    10   LYS  HZ3  HC             0.33         1.008       0
     163 P    10   LYS  C    C              0.51        12.011       0
     164 P    10   LYS  O    O             -0.51        15.999       0
     165 P    11   LYS  N    NH1           -0.47        14.007       0
     166 P    11   LYS  HN   H              0.31         1.008       0
     167 P    11   LYS  CA   CT1            0.07        12.011       0
     168 P    11   LYS  HA   HB1            0.09         1.008       0
     169 P    11   LYS  CB   CT2           -0.18        12.011       0
     170 P    11   LYS  HB1  HA2            0.09         1.008       0
     171 P    11   LYS  HB2  HA2            0.09         1.008       0
     172 P    11   LYS  CG   CT2           -0.18        12.011       0
     173 P    11   LYS  HG1  HA2            0.09         1.008       0
     174 P    11   LYS  HG2  HA2            0.09         1.008       0
     175 P    11   LYS  CD   CT2           -0.18        12.011       0
     176 P    11   LYS  HD1  HA2            0.09         1.008       0
     177 P    11   LYS  HD2  HA2            0.09         1.008       0
     178 P    11   LYS  CE   CT2            0.21        12.011       0
     179 P    11   LYS  HE1  HA2            0.05         1.008       0
     180 P    11   LYS  HE2  HA2            0.05         1.008       0
     181 P    11   LYS  NZ   NH3            -0.3        14.007       0
     182 P    11   LYS  HZ1  HC             0.33         1.008       0
     183 P    11   LYS  HZ2  HC             0.33         1.008       0
     184 P    11   LYS  HZ3  HC             0.33         1.008       0
     185 P    11   LYS  C    C              0.51        12.011       0
     186 P    11   LYS  O    O             -0.51        15.999       0
     187 P    12   LEU  N    NH1           -0.47        14.007       0
     188 P    12   LEU  HN   H              0.31         1.008       0
     189 P    12   LEU  CA   CT1            0.07        12.011       0
     190 P    12   LEU  HA   HB1            0.09         1.008       0
     191 P    12   LEU  CB   CT2           -0.18        12.011       0
     192 P    12   LEU  HB1  HA2            0.09         1.008       0
     193 P    12   LEU  HB2  HA2            0.09         1.008       0
     194 P    12   LEU  CG   CT1           -0.09        12.011       0
     195 P    12   LEU  HG   HA1            0.09         1.008       0
     196 P    12   LEU  CD1  CT3           -0.27        12.011       0
     197 P    12   LEU  HD11 HA3            0.09         1.008       0
     198 P    12   LEU  HD12 HA3            0.09         1.008       0
     199 P    12   LEU  HD13 HA3            0.09         1.008       0
     200 P    12   LEU  CD2  CT3           -0.27        12.011       0
     201 P    12   LEU  HD21 HA3            0.09         1.008       0
     202 P    12   LEU  HD22 HA3            0.09         1.008       0
     203 P    12   LEU  HD23 HA3            0.09         1.008       0
     204 P    12   LEU  C    C              0.51        12.011       0
     205 P    12   LEU  O    O             -0.51        15.999       0
     206 P    13   ALA  N    NH1           -0.47        14.007       0
     207 P    13   ALA  HN   H              0.31         1.008       0
     208 P    13   ALA  CA   CT1            0.07        12.011       0
     209 P    13   ALA  HA   HB1            0.09         1.008       0
     210 P    13   ALA  CB   CT3           -0.27        12.011       0
     211 P    13   ALA  HB1  HA3            0.09         1.008       0
     212 P    13   ALA  HB2  HA3            0.09         1.008       0
     213 P    13   ALA  HB3  HA3            0.09         1.008       0
     214 P    13   ALA  C    C              0.51        12.011       0
     215 P    13   ALA  O    O             -0.51        15.999       0
     216 P    14   GLU  N    NH1           -0.47        14.007       0
     217 P    14   GLU  HN   H              0.31         1.008       0
     218 P    14   GLU  CA   CT1            0.07        12.011       0
     219 P    14   GLU  HA   HB1            0.09         1.008       0
     220 P    14   GLU  CB   CT2A          -0.18        12.011       0
     221 P    14   GLU  HB1  HA2            0.09         1.008       0
     222 P    14   GLU  HB2  HA2            0.09         1.008       0
     223 P    14   GLU  CG   CT2           -0.28        12.011       0
     224 P    14   GLU  HG1  HA2            0.09         1.008       0
     225 P    14   GLU  HG2  HA2            0.09         1.008       0
     226 P    14   GLU  CD   CC             0.62        12.011       0
     227 P    14   GLU  OE1  OC            -0.76        15.999       0
     228 P    14   GLU  OE2  OC            -0.76        15.999       0
     229 P    14   GLU  C    C              0.51        12.011       0
     230 P    14   GLU  O    O             -0.51        15.999       0
     231 P    15   SER  N    NH1           -0.47        14.007       0
     232 P    15   SER  HN   H              0.31         1.008       0
     233 P    15   SER  CA   CT1            0.07        12.011       0
     234 P    15   SER  HA   HB1            0.09         1.008       0
     235 P    15   SER  CB   CT2            0.05        12.011       0
     236 P    15   SER  HB1  HA2            0.09         1.008       0
     237 P    15   SER  HB2  HA2            0.09         1.008       0
     238 P    15   SER  OG   OH1           -0.66        15.999       0
     239 P    15   SER  HG1  H              0.43         1.008       0
     240 P    15   SER  C    CC             0.34        12.011       0
     241 P    15   SER  OT1  OC            -0.67        15.999       0
     242 P    15   SER  OT2  OC            -0.67        15.999       0
     243 TIP3 1    TIP3 OH2  OT           -0.834       15.9994       0
     244 TIP3 1    TIP3 H1   HT            0.417         1.008       0
     245 TIP3 1    TIP3 H2   HT            0.417         1.008       0
     246 TIP3 2    TIP3 OH2  OT           -0.834       15.9994       0
     247 TIP3 2    TIP3 H1   HT            0.417         1.008       0
     248 TIP3 2    TIP3 H2   HT            0.417         1.008       0
     249 TIP3 3    TIP3 OH2  OT           -0.834       15.9994       0
     250 TIP3 3    TIP3 H1   HT            0.417         1.008       0
     251 TIP3 3    TIP3 H2   HT            0.417         1.008       0
     252 TIP3 4    TIP3 OH2  OT           -0.834       15.9994       0
     253 TIP3 4    TIP3 H1   HT            0.417         1.008       0
     254 TIP3 4    TIP3 H2   HT            0.417         1.008       0
     255 TIP3 5    TIP3 OH2  OT           -0.834       15.9994       0
     256 TIP3 5    TIP3 H1   HT            0.417         1.008       0
     257 TIP3 5    TIP3 H2   HT            0.417         1.008       0
     258 TIP3 6    TIP3 OH2  OT           -0.834       15.9994       0
     259 TIP3 6    TIP3 H1   HT            0.417         1.008       0
     260 TIP3 6    TIP3 H2   HT            0.417         1.008       0
     261 TIP3 7    TIP3 OH2  OT           -0.834       15.9994       0
     262 TIP3 7    TIP3 H1   HT            0.417         1.008       0
     263 TIP3 7    TIP3 H2   HT            0.417         1.008       0
     264 TIP3 8    TIP3 OH2  OT           -0.834       15.9994       0
     265 TIP3 8    TIP3 H1   HT            0.417         1.008       0
     266 TIP3 8    TIP3 H2   HT            0.417         1.008       0
     267 TIP3 9    TIP3 OH2  OT           -0.834       15.9994       0
     268 TIP3 9    TIP3 H1   HT            0.417         1.008       0
     269 TIP3 9    TIP3 H2   HT            0.417         1.008       0
     270 TIP3 10   TIP3 OH2  OT           -0.834       15.9994       0
     271 TIP3 10   TIP3 H1   HT            0.417         1.008       0
     272 TIP3 10   TIP3 H2   HT            0.417         1.008       0
     273 TIP3 11   TIP3 OH2  OT           -0.834       15.9994       0
     274 TIP3 11   TIP3 H1   HT            0.417         1.008       0
     275 TIP3 11   TIP3 H2   HT            0.417         1.008       0
     276 TIP3 12   TIP3 OH2  OT           -0.834       15.9994       0
     277 TIP3 12   TIP3 H1   HT            0.417         1.008       0
     278 TIP3 12   TIP3 H2   HT            0.417         1.008       0
     279 TIP3 13   TIP3 OH2  OT           -0.834       15.9994       0
     280 TIP3 13   TIP3 H1   HT            0.417         1.008       0
     281 TIP3 13   TIP3 H2   HT            0.417         1.008       0
     282 TIP3 14   TIP3 OH2  OT           -0.834       15.9994       0
     283 TIP3 14   TIP3 H1   HT            0.417         1.008       0
     284 TIP3 14   TIP3 H2   HT            0.417         1.008       0
     285 TIP3 15   TIP3 OH2  OT           -0.834       15.9994       0
     286 TIP3 15   TIP3 H1   HT            0.417         1.008       0
     287 TIP3 15   TIP3 H2   HT            0.417         1.008       0
     288 TIP3 16   TIP3 OH2  OT           -0.834       15.9994       0
     289 TIP3 16   TIP3 H1   HT            0.417         1.008       0
     290 TIP3 16   TIP3 H2   HT            0.417         1.008       0
     291 TIP3 17   TIP3 OH2  OT           -0.834       15.9994       0
     292 TIP3 17   TIP3 H1   HT            0.417         1.008       0
     293 TIP3 17   TIP3 H2   HT            0.417         1.008       0
     294 TIP3 18   TIP3 OH2  OT           -0.834       15.9994       0
     295 TIP3 18   TIP3 H1   HT            0.417         1.008       0
     296 TIP3 18   TIP3 H2   HT            0.417         1.008       0
     297 TIP3 19   TIP3 OH2  OT           -0.834       15.9994       0
     298 TIP3 19   TIP3 H1   HT            0.417         1.008       0
     299 TIP3 19   TIP3 H2   HT            0.417         1.008       0
     300 TIP3 20   TIP3 OH2  OT           -0.834       15.9994       0
     301 TIP3 20   TIP3 H1   HT            0.417         1.008       0
     302 TIP3 20   TIP3 H2   HT            0.417         1.008       0
     303 TIP3 21   TIP3 OH2  OT           -0.834       15.9994       0
     304 TIP3 21   TIP3 H1   HT            0.417         1.008       0
     305 TIP3 21   TIP3 H2   HT            0.417         1.008       0
     306 TIP3 22   TIP3 OH2  OT           -0.834       15.9994       0
     307 TIP3 22   TIP3 H1   HT            0.417         1.008       0
     308 TIP3 22   TIP3 H2   HT            0.417         1.008       0
     309 TIP3 23   TIP3 OH2  OT           -0.834       15.9994       0
     310 TIP3 23   TIP3 H1   HT            0.417         1.008       0
     311 TIP3 23   TIP3 H2   HT            0.417         1.008       0
     312 TIP3 24   TIP3 OH2  OT           -0.834       15.9994       0
     313 TIP3 24   TIP3 H1   HT            0.417         1.008       0
     314 TIP3 24   TIP3 H2   HT            0.417         1.008       0
     315 TIP3 25   TIP3 OH2  OT           -0.834       15.9994       0
     316 TIP3 25   TIP3 H1   HT            0.417         1.008       0
     317 TIP3 25   TIP3 H2   HT            0.417         1.008       0
     318 TIP3 26   TIP3 OH2  OT           -0.834       15.9994       0
     319 TIP3 26   TIP3 H1   HT            0.417         1.008       0
     320 TIP3 26   TIP3 H2   HT            0.417         1.008       0
     321 TIP3 27   TIP3 OH2  OT           -0.834       15.9994       0
     322 TIP3 27   TIP3 H1   HT            0.417         1.008       0
     323 TIP3 27   TIP3 H2   HT            0.417         1.008       0
     324 TIP3 28   TIP3 OH2  OT           -0.834       15.9994       0
     325 TIP3 28   TIP3 H1   HT            0.417         1.008       0
     326 TIP3 28   TIP3 H2   HT            0.417         1.008       0
     327 TIP3 29   TIP3 OH2  OT           -0.834       15.9994       0
     328 TIP3 29   TIP3 H1   HT            0.417         1.008       0
     329 TIP3 29   TIP3 H2   HT            0.417         1.008       0
     330 TIP3 30   TIP3 OH2  OT           -0.834       15.9994       0
     331 TIP3 30   TIP3 H1   HT            0.417         1.008       0
     332 TIP3 30   TIP3 H2   HT            0.417         1.008       0
     333 TIP3 31   TIP3 OH2  OT           -0.834       15.9994       0
     334 TIP3 31   TIP3 H1   HT            0.417         1.008       0
     335 TIP3 31   TIP3 H2   HT            0.417         1.008       0
     336 TIP3 32   TIP3 OH2  OT           -0.834       15.9994       0
     337 TIP3 32   TIP3 H1   HT            0.417         1.008       0
     338 TIP3 32   TIP3 H2   HT            0.417         1.008       0
     339 TIP3 33   TIP3 OH2  OT           -0.834       15.9994       0
     340 TIP3 33   TIP3 H1   HT            0.417         1.008       0
     341 TIP3 33   TIP3 H2   HT            0.417         1.008       0
     342 TIP3 34   TIP3 OH2  OT           -0.834       15.9994       0
     343 TIP3 34   TIP3 H1   HT            0.417         1.008       0
     344 TIP3 34   TIP3 H2   HT            0.417         1.008       0
     345 TIP3 35   TIP3 OH2  OT           -0.834       15.9994       0
     346 TIP3 35   TIP3 H1   HT            0.417         1.008       0
     347 TIP3 35   TIP3 H2   HT            0.417         1.008       0
     348 TIP3 36   TIP3 OH2  OT           -0.834       15.9994       0
     349 TIP3 36   TIP3 H1   HT            0.417         1.008       0
     350 TIP3 36   TIP3 H2   HT            0.417         1.008       0
     351 TIP3 37   TIP3 OH2  OT           -0.834       15.9994       0
     352 TIP3 37   TIP3 H1   HT            0.417         1.008       0
     353 TIP3 37   TIP3 H2   HT            0.417         1.008       0
     354 TIP3 38   TIP3 OH2  OT           -0.834       15.9994       0
     355 TIP3 38   TIP3 H1   HT            0.417         1.008       0
     356 TIP3 38   TIP3 H2   HT            0.417         1.008       0
     357 TIP3 39   TIP3 OH2  OT           -0.834       15.9994       0
     358 TIP3 39   TIP3 H1   HT            0.417         1.008       0
     359 TIP3 39   TIP3 H2   HT            0.417         1.008       0
     360 TIP3 40   TIP3 OH2  OT           -0.834       15.9994       0
     361 TIP3 40   TIP3 H1   HT            0.417         1.008       0
     362 TIP3 40   TIP3 H2   HT            0.417         1.008       0
     363 TIP3 41   TIP3 OH2  OT           -0.834       15.9994       0
     364 TIP3 41   TIP3 H1   HT            0.417         1.008       0
     365 TIP3 41   TIP3 H2   HT            0.417         1.008       0
     366 TIP3 42   TIP3 OH2  OT           -0.834       15.9994       0
     367 TIP3 42   TIP3 H1   HT            0.417         1.008       0
     368 TIP3 42   TIP3 H2   HT            0.417         1.008       0
     369 TIP3 43   TIP3 OH2  OT           -0.834       15.9994       0
     370 TIP3 43   TIP3 H1   HT            0.417         1.008       0
     371 TIP3 43   TIP3 H2   HT            0.417         1.008       0
     372 TIP3 44   TIP3 OH2  OT           -0.834       15.9994       0
     373 TIP3 44   TIP3 H1   HT            0.417         1.008       0
     374 TIP3 44   TIP3 H2   HT            0.417         1.008       0
     375 TIP3 45   TIP3 OH2  OT           -0.834       15.9994       0
     376 TIP3 45   TIP3 H1   HT            0.417         1.008       0
     377 TIP3 45   TIP3 H2   HT            0.417         1.008       0
     378 TIP3 46   TIP3 OH2  OT           -0.834       15.9994       0
     379 TIP3 46   TIP3 H1   HT            0.417         1.008       0
     380 TIP3 46   TIP3 H2   HT            0.417         1.008       0
     381 TIP3 47   TIP3 OH2  OT           -0.834       15.9994       0
     382 TIP3 47   TIP3 H1   HT            0.417         1.008       0
     383 TIP3 47   TIP3 H2   HT            0.417         1.008       0
     384 TIP3 48   TIP3 OH2  OT           -0.834       15.9994       0
     385 TIP3 48   TIP3 H1   HT            0.417         1.008       0
     386 TIP3 48   TIP3 H2   HT            0.417         1.008       0
     387 TIP3 49   TIP3 OH2  OT           -0.834       15.9994       0
     388 TIP3 49   TIP3 H1   HT            0.417         1.008       0
     389 TIP3 49   TIP3 H2   HT            0.417         1.008       0
     390 TIP3 50   TIP3 OH2  OT           -0.834       15.9994       0
     391 TIP3 50   TIP3 H1   HT            0.417         1.008       0
     392 TIP3 50   TIP3 H2   HT            0.417         1.008       0
     393 TIP3 51   TIP3 OH2  OT           -0.834       15.9994       0
     394 TIP3 51   TIP3 H1   HT            0.417         1.008       0
     395 TIP3 51   TIP3 H2   HT            0.417         1.008       0
     396 TIP3 52   TIP3 OH2  OT           -0.834       15.9994       0
     397 TIP3 52   TIP3 H1   HT            0.417         1.008       0
     398 TIP3 52   TIP3 H2   HT            0.417         1.008       0
     399 TIP3 53   TIP3 OH2  OT           -0.834       15.9994       0
     400 TIP3 53   TIP3 H1   HT            0.417         1.008       0
     401 TIP3 53   TIP3 H2   HT            0.417         1.008       0
     402 TIP3 54   TIP3 OH2  OT           -0.834       15.9994       0
     403 TIP3 54   TIP3 H1   HT            0.417         1.008       0
     404 TIP3 54   TIP3 H2   HT            0.417         1.008       0
     405 TIP3 55   TIP3 OH2  OT           -0.834       15.9994       0
     406 TIP3 55   TIP3 H1   HT            0.417         1.008       0
     407 TIP3 55   TIP3 H2   HT            0.417         1.008       0
     408 TIP3 56   TIP3 OH2  OT           -0.834       15.9994       0
     409 TIP3 56   TIP3 H1   HT            0.417         1.008       0
     410 TIP3 56   TIP3 H2   HT            0.417         1.008       0
     411 TIP3 57   TIP3 OH2  OT           -0.834       15.9994       0
     412 TIP3 57   TIP3 H1   HT            0.417         1.008       0
     413 TIP3 57   TIP3 H2   HT            0.417         1.008       0
     414 TIP3 58   TIP3 OH2  OT           -0.834       15.9994       0
     415 TIP3 58   TIP3 H1   HT            0.417         1.008       0
     416 TIP3 58   TIP3 H2   HT            0.417         1.008       0
     417 TIP3 59   TIP3 OH2  OT           -0.834       15.9994       0
     418 TIP3 59   TIP3 H1   HT            0.417         1.008       0
     419 TIP3 59   TIP3 H2   HT            0.417         1.008       0
     420 TIP3 60   TIP3 OH2  OT           -0.834       15.9994       0
     421 TIP3 60   TIP3 H1   HT            0.417         1.008       0
     422 TIP3 60   TIP3 H2   HT            0.417         1.008       0
     423 TIP3 61   TIP3 OH2  OT           -0.834       15.9994       0
     424 TIP3 61   TIP3 H1   HT            0.417         1.008       0
     425 TIP3 61   TIP3 H2   HT            0.417         1.008       0
     426 TIP3 62   TIP3 OH2  OT           -0.834       15.9994       0
     427 TIP3 62   TIP3 H1   HT            0.417         1.008       0
     428 TIP3 62   TIP3 H2   HT            0.417         1.008       0
     429 TIP3 63   TIP3 OH2  OT           -0.834       15.9994       0
     430 TIP3 63   TIP3 H1   HT            0.417         1.008       0
     431 TIP3 63   TIP3 H2   HT            0.417         1.008       0
     432 TIP3 64   TIP3 OH2  OT           -0.834       15.9994       0
     433 TIP3 64   TIP3 H1   HT            0.417         1.008       0
     434 TIP3 64   TIP3 H2   HT            0.417         1.008       0
     435 TIP3 65   TIP3 OH2  OT           -0.834       15.9994       0
     436 TIP3 65   TIP3 H1   HT            0.417         1.008       0
     437 TIP3 65   TIP3 H2   HT            0.417         1.008       0
     438 TIP3 66   TIP3 OH2  OT           -0.834       15.9994       0
     439 TIP3 66   TIP3 H1   HT            0.417         1.008       0
     440 TIP3 66   TIP3 H2   HT            0.417         1.008       0
     441 TIP3 67   TIP3 OH2  OT           -0.834       15.9994       0
     442 TIP3 67   TIP3 H1   HT            0.417         1.008       0
     443 TIP3 67   TIP3 H2   HT            0.417         1.008       0
     444 TIP3 68   TIP3 OH2  OT           -0.834       15.9994       0
     445 TIP3 68   TIP3 H1   HT            0.417         1.008       0
     446 TIP3 68   TIP3 H2   HT            0.417         1.008       0
     447 TIP3 69   TIP3 OH2  OT           -0.834       15.9994       0
     448 TIP3 69   TIP3 H1   HT            0.417         1.008       0
     449 TIP3 69   TIP3 H2   HT            0.417         1.008       0
     450 TIP3 70   TIP3 OH2  OT           -0.834       15.9994       0
     451 TIP3 70   TIP3 H1   HT            0.417         1.008       0
     452 TIP3 70   TIP3 H2   HT            0.417         1.008       0
     453 TIP3 71   TIP3 OH2  OT           -0.834       15.9994       0
     454 TIP3 71   TIP3 H1   HT            0.417         1.008       0
     455 TIP3 71   TIP3 H2   HT            0.417         1.008       0
     456 TIP3 72   TIP3 OH2  OT           -0.834       15.9994       0
     457 TIP3 72   TIP3 H1   HT            0.417         1.008       0
     458 TIP3 72   TIP3 H2   HT            0.417         1.008       0
     459 TIP3 73   TIP3 OH2  OT           -0.834       15.9994       0
     460 TIP3 73   TIP3 H1   HT            0.417         1.008       0
     461 TIP3 73   TIP3 H2   HT            0.417         1.008       0
     462 TIP3 74   TIP3 OH2  OT           -0.834       15.9994       0
     463 TIP3 74   TIP3 H1   HT            0.417         1.008       0
     464 TIP3 74   TIP3 H2   HT            0.417         1.008       0
     465 TIP3 75   TIP3 OH2  OT           -0.834       15.9994       0
     466 TIP3 75   TIP3 H1   HT            0.417         1.008       0
     467 TIP3 75   TIP3 H2   HT            0.417         1.008       0
     468 TIP3 76   TIP3 OH2  OT           -0.834       15.9994       0
     469 TIP3 76   TIP3 H1   HT            0.417         1.008       0
     470 TIP3 76   TIP3 H2   HT            0.417         1.008       0
     471 TIP3 77   TIP3 OH2  OT           -0.834       15.9994       0
     472 TIP3 77   TIP3 H1   HT            0.417         1.008       0
     473 TIP3 77   TIP3 H2   HT            0.417         1.008       0
     474 TIP3 78   TIP3 OH2  OT           -0.834       15.9994       0
     475 TIP3 78   TIP3 H1   HT            0.417         1.008       0
     476 TIP3 78   TIP3 H2   HT            0.417         1.008       0
     477 TIP3 79   TIP3 OH2  OT           -0.834       15.9994       0
     478 TIP3 79   TIP3 H1   HT            0.417         1.008       0
     479 TIP3 79   TIP3 H2   HT            0.417         1.008       0
     480 TIP3 80   TIP3 OH2  OT           -0.834       15.9994       0
     481 TIP3 80   TIP3 H1   HT            0.417         1.008       0
     482 TIP3 80   TIP3 H2   HT            0.417         1.008       0
     483 TIP3 81   TIP3 OH2  OT           -0.834       15.9994       0
     484 TIP3 81   TIP3 H1   HT            0.417         1.008       0
     485 TIP3 81   TIP3 H2   HT            0.417         1.008       0
     486 TIP3 82   TIP3 OH2  OT           -0.834       15.9994       0
     487 TIP3 82   TIP3 H1   HT            0.417         1.008       0
     488 TIP3 82   TIP3 H2   HT            0.417         1.008       0
     489 TIP3 83   TIP3 OH2  OT           -0.834       15.9994       0
     490 TIP3 83   TIP3 H1   HT            0.417         1.008       0
     491 TIP3 83   TIP3 H2   HT            0.417         1.008       0
     492 TIP3 84   TIP3 OH2  OT           -0.834       15.9994       0
     493 TIP3 84   TIP3 H1   HT            0.417         1.008       0
     494 TIP3 84   TIP3 H2   HT            0.417         1.008       0
     495 TIP3 85   TIP3 OH2  OT           -0.834       15.9994       0
     496 TIP3 85   TIP3 H1   HT            0.417         1.008       0
     497 TIP3 85   TIP3 H2   HT            0.417         1.008       0
     498 TIP3 86   TIP3 OH2  OT           -0.834       15.9994       0
     499 TIP3 86   TIP3 H1   HT            0.417         1.008       0
     500 TIP3 86   TIP3 H2   HT            0.417         1.008       0
     501 TIP3 87   TIP3 OH2  OT           -0.834       15.9994       0
     502 TIP3 87   TIP3 H1   HT            0.417         1.008       0
     503 TIP3 87   TIP3 H2   HT            0.417         1.008       0
     504 TIP3 88   TIP3 OH2  OT           -0.834       15.9994       0
     505 TIP3 88   TIP3 H1   HT            0.417         1.008       0
     506 TIP3 88   TIP3 H2   HT            0.417         1.008       0
     507 TIP3 89   TIP3 OH2  OT           -0.834       15.9994       0
     508 TIP3 89   TIP3 H1   HT            0.417         1.008       0
     509 TIP3 89   TIP3 H2   HT            0.417         1.008       0
     510 TIP3 90   TIP3 OH2  OT           -0.834       15.9994       0
     511 TIP3 90   TIP3 H1   HT            0.417         1.008       0
     512 TIP3 90   TIP3 H2   HT            0.417         1.008       0
     513 TIP3 91   TIP3 OH2  OT           -0.834       15.9994       0
     514 TIP3 91   TIP3 H1   HT            0.417         1.008       0
     515 TIP3 91   TIP3 H2   HT            0.417         1.008       0
     516 TIP3 92   TIP3 OH2  OT           -0.834       15.9994       0
     517 TIP3 92   TIP3 H1   HT            0.417         1.008       0
     518 TIP3 92   TIP3 H2   HT            0.417         1.008       0
     519 TIP3 93   TIP3 OH2  OT           -0.834       15.9994       0
     520 TIP3 93   TIP3 H1   HT            0.417         1.008       0
     521 TIP3 93   TIP3 H2   HT            0.417         1.008       0
     522 TIP3 94   TIP3 OH2  OT           -0.834       15.9994       0
     523 TIP3 94   TIP3 H1   HT            0.417         1.008       0
     524 TIP3 94   TIP3 H2   HT            0.417         1.008       0
     525 TIP3 95   TIP3 OH2  OT           -0.834       15.9994       0
     526 TIP3 95   TIP3 H1   HT            0.417         1.008       0
     527 TIP3 95   TIP3 H2   HT            0.417         1.008       0
     528 TIP3 96   TIP3 OH2  OT           -0.834       15.9994       0
     529 TIP3 96   TIP3 H1   HT            0.417         1.008       0
     530 TIP3 96   TIP3 H2   HT            0.417         1.008       0
     531 TIP3 97   TIP3 OH2  OT           -0.834       15.9994       0
     532 TIP3 97   TIP3 H1   HT            0.417         1.008       0
     533 TIP3 97   TIP3 H2   HT            0.417         1.008       0
     534 TIP3 98   TIP3 OH2  OT           -0.834       15.9994       0
     535 TIP3 98   TIP3 H1   HT            0.417         1.008       0
     536 TIP3 98   TIP3 H2   HT            0.417         1.008       0
     537 TIP3 99   TIP3 OH2  OT           -0.834       15.9994       0
     538 TIP3 99   TIP3 H1   HT            0.417         1.008       0
     539 TIP3 99   TIP3 H2   HT            0.417         1.008       0
     540 TIP3 100  TIP3 OH2  OT           -0.834       15.9994       0
     541 TIP3 100  TIP3 H1   HT            0.417         1.008       0
     542 TIP3 100  TIP3 H2   HT            0.417         1.008       0
     543 TIP3 101  TIP3 OH2  OT           -0.834       15.9994       0
     544 TIP3 101  TIP3 H1   HT            0.417         1.008       0
     545 TIP3 101  TIP3 H2   HT            0.417         1.008       0
     546 TIP3 102  TIP3 OH2  OT           -0.834       15.9994       0
     547 TIP3 102  TIP3 H1   HT            0.417         1.008       0
     548 TIP3 102  TIP3 H2   HT            0.417         1.008       0
     549 TIP3 103  TIP3 OH2  OT           -0.834       15.9994       0
     550 TIP3 103  TIP3 H1   HT            0.417         1.008       0
     551 TIP3 103  TIP3 H2   HT            0.417         1.008       0
     552 TIP3 104  TIP3 OH2  OT           -0.834       15.9994       0
     553 TIP3 104  TIP3 H1   HT            0.417         1.008       0
     554 TIP3 104  TIP3 H2   HT            0.417         1.008       0
     555 TIP3 105  TIP3 OH2  OT           -0.834       15.9994       0
     556 TIP3 105  TIP3 H1   HT            0.417         1.008       0
     557 TIP3 105  TIP3 H2   HT            0.417         1.008       0
     558 TIP3 106  TIP3 OH2  OT           -0.834       15.9994       0
     559 TIP3 106  TIP3 H1   HT            0.417         1.008       0
     560 TIP3 106  TIP3 H2   HT            0.417         1.008       0
     561 TIP3 107  TIP3 OH2  OT           -0.834       15.9994       0
     562 TIP3 107  TIP3 H1   HT            0.417         1.008       0
     563 TIP3 107  TIP3 H2   HT            0.417         1.008       0
     564 TIP3 108  TIP3 OH2  OT           -0.834       15.9994       0
     565 TIP3 108  TIP3 H1   HT            0.417         1.008       0
     566 TIP3 108  TIP3 H2   HT            0.417         1.008       0
     567 TIP3 109  TIP3 OH2  OT           -0.834       15.9994       0
     568 TIP3 109  TIP3 H1   HT            0.417         1.008       0
     569 TIP3 109  TIP3 H2   HT            0.417         1.008       0
     570 TIP3 110  TIP3 OH2  OT           -0.834       15.9994       0
     571 TIP3 110  TIP3 H1   HT            0.417         1.008       0
     572 TIP3 110  TIP3 H2   HT            0.417         1.008       0
     573 TIP3 111  TIP3 OH2  OT           -0.834       15.9994       0
     574 TIP3 111  TIP3 H1   HT            0.417         1.008       0
     575 TIP3 111  TIP3 H2   HT            0.417         1.008       0
     576 TIP3 112  TIP3 OH2  OT           -0.834       15.9994       0
     577 TIP3 112  TIP3 H1   HT            0.417         1.008       0
     578 TIP3 112  TIP3 H2   HT            0.417         1.008       0
     579 TIP3 113  TIP3 OH2  OT           -0.834       15.9994       0
     580 TIP3 113  TIP3 H1   HT            0.417         1.008       0
     581 TIP3 113  TIP3 H2   HT            0.417         1.008       0
     582 TIP3 114  TIP3 OH2  OT           -0.834       15.9994       0
     583 TIP3 114  TIP3 H1   HT            0.417         1.008       0
     584 TIP3 114  TIP3 H2   HT            0.417         1.008       0
     585 TIP3 115  TIP3 OH2  OT           -0.834       15.9994       0
     586 TIP3 115  TIP3 H1   HT            0.417         1.008       0
     587 TIP3 115  TIP3 H2   HT            0.417         1.008       0
     588 TIP3 116  TIP3 OH2  OT           -0.834       15.9994       0
     589 TIP3 116  TIP3 H1   HT            0.417         1.008       0
     590 TIP3 116  TIP3 H2   HT            0.417         1.008       0
     591 TIP3 117  TIP3 OH2  OT           -0.834       15.9994       0
     592 TIP3 117  TIP3 H1   HT            0.417         1.008       0
     593 TIP3 117  TIP3 H2   HT            0.417         1.008       0
     594 TIP3 118  TIP3 OH2  OT           -0.834       15.9994       0
     595 TIP3 118  TIP3 H1   HT            0.417         1.008       0
     596 TIP3 118  TIP3 H2   HT            0.417         1.008       0
     597 TIP3 119  TIP3 OH2  OT           -0.834       15.9994       0
     598 TIP3 119  TIP3 H1   HT            0.417         1.008       0
     599 TIP3 119  TIP3 H2   HT            0.417         1.008       0
     600 TIP3 120  TIP3 OH2  OT           -0.834       15.9994       0
     601 TIP3 120  TIP3 H1   HT            0.417         1.008       0
     602 TIP3 120  TIP3 H2   HT            0.417         1.008       0
     603 TIP3 121  TIP3 OH2  OT           -0.834       15.9994       0
     604 TIP3 121  TIP3 H1   HT            0.417         1.008       0
     605 TIP3 121  TIP3 H2   HT            0.417         1.008       0
     606 TIP3 122  TIP3 OH2  OT           -0.834       15.9994       0
     607 TIP3 122  TIP3 H1   HT            0.417         1.008       0
     608 TIP3 122  TIP3 H2   HT            0.417         1.008       0
     609 TIP3 123  TIP3 OH2  OT           -0.834       15.9994       0
     610 TIP3 123  TIP3 H1   HT            0.417         1.008       0
     611 TIP3 123  TIP3 H2   HT            0.417         1.008       0
     612 TIP3 124  TIP3 OH2  OT           -0.834       15.9994       0
     613 TIP3 124  TIP3 H1   HT            0.417         1.008       0
     614 TIP3 124  TIP3 H2   HT            0.417         1.008       0
     615 TIP3 125  TIP3 OH2  OT           -0.834       15.9994       0
     616 TIP3 125  TIP3 H1   HT            0.417         1.008       0
     617 TIP3 125  TIP3 H2   HT            0.417         1.008       0
     618 TIP3 126  TIP3 OH2  OT           -0.834       15.9994       0
     619 TIP3 126  TIP3 H1   HT            0.417         1.008       0
     620 TIP3 126  TIP3 H2   HT            0.417         1.008       0
     621 TIP3 127  TIP3 OH2  OT           -0.834       15.9994       0
     622 TIP3 127  TIP3 H1   HT            0.417         1.008       0
     623 TIP3 127  TIP3 H2   HT            0.417         1.008       0
     624 TIP3 128  TIP3 OH2  OT           -0.834       15.9994       0
     625 TIP3 128  TIP3 H1   HT            0.417         1.008       0
     626 TIP3 128  TIP3 H2   HT            0.417         1.008       0
     627 TIP3 129  TIP3 OH2  OT           -0.834       15.9994       0
     628 TIP3 129  TIP3 H1   HT            0.417         1.008       0
     629 TIP3 129  TIP3 H2   HT            0.417         1.008       0
     630 TIP3 130  TIP3 OH2  OT           -0.834       15.9994       0
     631 TIP3 130  TIP3 H1   HT            0.417         1.008       0
     632 TIP3 130  TIP3 H2   HT            0.417         1.008       0
     633 TIP3 131  TIP3 OH2  OT           -0.834       15.9994       0
     634 TIP3 131  TIP3 H1   HT            0.417         1.008       0
     635 TIP3 131  TIP3 H2   HT            0.417         1.008       0
     636 TIP3 132  TIP3 OH2  OT           -0.834       15.9994       0
     637 TIP3 132  TIP3 H1   HT            0.417         1.008       0
     638 TIP3 132  TIP3 H2   HT            0.417         1.008       0
     639 TIP3 133  TIP3 OH2  OT           -0.834       15.9994       0
     640 TIP3 133  TIP3 H1   HT            0.417         1.008       0
     641 TIP3 133  TIP3 H2   HT            0.417         1.008       0
     642 TIP3 134  TIP3 OH2  OT           -0.834       15.9994       0
     643 TIP3 134  TIP3 H1   HT            0.417         1.008       0
     644 TIP3 134  TIP3 H2   HT            0.417         1.008       0
     645 TIP3 135  TIP3 OH2  OT           -0.834       15.9994       0
     646 TIP3 135  TIP3 H1   HT            0.417         1.008       0
     647 TIP3 135  TIP3 H2   HT            0.417         1.008       0
     648 TIP3 136  TIP3 OH2  OT           -0.834       15.9994       0
     649 TIP3 136  TIP3 H1   HT            0.417         1.008       0
     650 TIP3 136  TIP3 H2   HT            0.417         1.008       0
     651 TIP3 137  TIP3 OH2  OT           -0.834       15.9994       0
     652 TIP3 137  TIP3 H1   HT            0.417         1.008       0
     653 TIP3 137  TIP3 H2   HT            0.417         1.008       0
     654 TIP3 138  TIP3 OH2  OT           -0.834       15.9994       0
     655 TIP3 138  TIP3 H1   HT            0.417         1.008       0
     656 TIP3 138  TIP3 H2   HT            0.417         1.008       0
     657 TIP3 139  TIP3 OH2  OT           -0.834       15.9994       0
     658 TIP3 139  TIP3 H1   HT            0.417         1.008       0
     659 TIP3 139  TIP3 H2   HT            0.417         1.008       0
     660 TIP3 140  TIP3 OH2  OT           -0.834       15.9994       0
     661 TIP3 140  TIP3 H1   HT            0.417         1.008       0
     662 TIP3 140  TIP3 H2   HT            0.417         1.008       0
     663 TIP3 141  TIP3 OH2  OT           -0.834       15.9994       0
     664 TIP3 141  TIP3 H1   HT            0.417         1.008       0
     665 TIP3 141  TIP3 H2   HT            0.417         1.008       0
     666 TIP3 142  TIP3 OH2  OT           -0.834       15.9994       0
     667 TIP3 142  TIP3 H1   HT            0.417         1.008       0
     668 TIP3 142  TIP3 H2   HT            0.417         1.008       0
     669 TIP3 143  TIP3 OH2  OT           -0.834       15.9994       0
     670 TIP3 143  TIP3 H1   HT            0.417         1.008       0
     671 TIP3 143  TIP3 H2   HT            0.417         1.008       0
     672 TIP3 144  TIP3 OH2  OT           -0.834       15.9994       0
     673 TIP3 144  TIP3 H1   HT            0.417         1.008       0
     674 TIP3 144  TIP3 H2   HT            0.417         1.008       0
     675 TIP3 145  TIP3 OH2  OT           -0.834       15.9994       0
     676 TIP3 145  TIP3 H1   HT            0.417         1.008       0
     677 TIP3 145  TIP3 H2   HT            0.417         1.008       0
     678 TIP3 146  TIP3 OH2  OT           -0.834       15.9994       0
     679 TIP3 146  TIP3 H1   HT            0.417         1.008       0
     680 TIP3 146  TIP3 H2   HT            0.417         1.008       0
     681 TIP3 147  TIP3 OH2  OT           -0.834       15.9994       0
     682 TIP3 147  TIP3 H1   HT            0.417         1.008       0
     683 TIP3 147  TIP3 H2   HT            0.417         1.008       0
     684 TIP3 148  TIP3 OH2  OT           -0.834       15.9994       0
     685 TIP3 148  TIP3 H1   HT            0.417         1.008       0
     686 TIP3 148  TIP3 H2   HT            0.417         1.008       0
     687 TIP3 149  TIP3 OH2  OT           -0.834       15.9994       0
     688 TIP3 149  TIP3 H1   HT            0.417         1.008       0
     689 TIP3 149  TIP3 H2   HT            0.417         1.008       0
     690 TIP3 150  TIP3 OH2  OT           -0.834       15.9994       0
     691 TIP3 150  TIP3 H1   HT            0.417         1.008       0
     692 TIP3 150  TIP3 H2   HT            0.417         1.008       0
     693 TIP3 151  TIP3 OH2  OT           -0.834       15.9994       0
     694 TIP3 151  TIP3 H1   HT            0.417         1.008       0
     695 TIP3 151  TIP3 H2   HT            0.417         1.008       0
     696 TIP3 152  TIP3 OH2  OT           -0.834       15.9994       0
     697 TIP3 152  TIP3 H1   HT            0.417         1.008       0
     698 TIP3 152  TIP3 H2   HT            0.417         1.008       0
     699 TIP3 153  TIP3 OH2  OT           -0.834       15.9994       0
     700 TIP3 153  TIP3 H1   HT            0.417         1.008       0
     701 TIP3 153  TIP3 H2   HT            0.417         1.008       0
     702 TIP3 154  TIP3 OH2  OT           -0.834       15.9994       0
     703 TIP3 154  TIP3 H1   HT            0.417         1.008       0
     704 TIP3 154  TIP3 H2   HT            0.417         1.008       0
     705 TIP3 155  TIP3 OH2  OT           -0.834       15.9994       0
     706 TIP3 155  TIP3 H1   HT            0.417         1.008       0
     707 TIP3 155  TIP3 H2   HT            0.417         1.008       0
     708 TIP3 156  TIP3 OH2  OT           -0.834       15.9994       0
     709 TIP3 156  TIP3 H1   HT            0.417         1.008       0
     710 TIP3 156  TIP3 H2   HT            0.417         1.008       0
     711 TIP3 157  TIP3 OH2  OT           -0.834       15.9994       0
     712 TIP3 157  TIP3 H1   HT            0.417         1.008       0
     713 TIP3 157  TIP3 H2   HT            0.417         1.008       0
     714 TIP3 158  TIP3 OH2  OT           -0.834       15.9994       0
     715 TIP3 158  TIP3 H1   HT            0.417         1.008       0
     716 TIP3 158  TIP3 H2   HT            0.417         1.008       0
     717 TIP3 159  TIP3 OH2  OT           -0.834       15.9994       0
     718 TIP3 159  TIP3 H1   HT            0.417         1.008       0
     719 TIP3 159  TIP3 H2   HT            0.417         1.008       0
     720 TIP3 160  TIP3 OH2  OT           -0.834       15.9994       0
     721 TIP3 160  TIP3 H1   HT            0.417         1.008       0
     722 TIP3 160  TIP3 H2   HT            0.417         1.008       0
     723 TIP3 161  TIP3 OH2  OT           -0.834       15.9994       0
     724 TIP3 161  TIP3 H1   HT            0.417         1.008       0
     725 TIP3 161  TIP3 H2   HT            0.417         1.008       0
     726 TIP3 162  TIP3 OH2  OT           -0.834       15.9994       0
     727 TIP3 162  TIP3 H1   HT            0.417         1.008       0
     728 TIP3 162  TIP3 H2   HT            0.417         1.008       0
     729 TIP3 163  TIP3 OH2  OT           -0.834       15.9994       0
     730 TIP3 163  TIP3 H1   HT            0.417         1.008       0
     731 TIP3 163  TIP3 H2   HT            0.417         1.008       0
     732 TIP3 164  TIP3 OH2  OT           -0.834       15.9994       0
     733 TIP3 164  TIP3 H1   HT            0.417         1.008       0
     734 TIP3 164  TIP3 H2   HT            0.417         1.008       0
     735 TIP3 165  TIP3 OH2  OT           -0.834       15.9994       0
     736 TIP3 165  TIP3 H1   HT            0.417         1.008       0
     737 TIP3 165  TIP3 H2   HT            0.417         1.008       0
     738 TIP3 166  TIP3 OH2  OT           -0.834       15.9994       0
     739 TIP3 166  TIP3 H1   HT            0.417         1.008       0
     740 TIP3 166  TIP3 H2   HT            0.417         1.008       0
     741 TIP3 167  TIP3 OH2  OT           -0.834       15.9994       0
     742 TIP3 167  TIP3 H1   HT            0.417         1.008       0
     743 TIP3 167  TIP3 H2   HT            0.417         1.008       0
     744 TIP3 168  TIP3 OH2  OT           -0.834       15.9994       0
     745 TIP3 168  TIP3 H1   HT            0.417         1.008       0
     746 TIP3 168  TIP3 H2   HT            0.417         1.008       0
     747 TIP3 169  TIP3 OH2  OT           -0.834       15.9994       0
     748 TIP3 169  TIP3 H1   HT            0.417         1.008       0
     749 TIP3 169  TIP3 H2   HT            0.417         1.008       0
     750 TIP3 170  TIP3 OH2  OT           -0.834       15.9994       0
     751 TIP3 170  TIP3 H1   HT            0.417         1.008       0
     752 TIP3 170  TIP3 H2   HT            0.417         1.008       0
     753 TIP3 171  TIP3 OH2  OT           -0.834       15.9994       0
     754 TIP3 171  TIP3 H1   HT            0.417         1.008       0
     755 TIP3 171  TIP3 H2   HT            0.417         1.008       0
     756 TIP3 172  TIP3 OH2  OT           -0.834       15.9994       0
     757 TIP3 172  TIP3 H1   HT            0.417         1.008       0
     758 TIP3 172  TIP3 H2   HT            0.417         1.008       0
     759 TIP3 173  TIP3 OH2  OT           -0.834       15.9994       0
     760 TIP3 173  TIP3 H1   HT            0.417         1.008       0
     761 TIP3 173  TIP3 H2   HT            0.417         1.008       0
     762 TIP3 174  TIP3 OH2  OT           -0.834       15.9994       0
     763 TIP3 174  TIP3 H1   HT            0.417         1.008       0
     764 TIP3 174  TIP3 H2   HT            0.417         1.008       0
     765 TIP3 175  TIP3 OH2  OT           -0.834       15.9994       0
     766 TIP3 175  TIP3 H1   HT            0.417         1.008       0
     767 TIP3 175  TIP3 H2   HT            0.417         1.008       0
     768 TIP3 176  TIP3 OH2  OT           -0.834       15.9994       0
     769 TIP3 176  TIP3 H1   HT            0.417         1.008       0
     770 TIP3 176  TIP3 H2   HT            0.417         1.008       0
     771 TIP3 177  TIP3 OH2  OT           -0.834       15.9994       0
     772 TIP3 177  TIP3 H1   HT            0.417         1.008       0
     773 TIP3 177  TIP3 H2   HT            0.417         1.008       0
     774 TIP3 178  TIP3 OH2  OT           -0.834       15.9994       0
     775 TIP3 178  TIP3 H1   HT            0.417         1.008       0
     776 TIP3 178  TIP3 H2   HT            0.417         1.008       0
     777 TIP3 179  TIP3 OH2  OT           -0.834       15.9994       0
     778 TIP3 179  TIP3 H1   HT            0.417         1.008       0
     779 TIP3 179  TIP3 H2   HT            0.417         1.008       0
     780 TIP3 180  TIP3 OH2  OT           -0.834       15.9994       0
     781 TIP3 180  TIP3 H1   HT            0.417         1.008       0
     782 TIP3 180  TIP3 H2   HT            0.417         1.008       0
     783 TIP3 181  TIP3 OH2  OT           -0.834       15.9994       0
     784 TIP3 181  TIP3 H1   HT            0.417         1.008       0
     785 TIP3 181  TIP3 H2   HT            0.417         1.008       0
     786 TIP3 182  TIP3 OH2  OT           -0.834       15.9994       0
     787 TIP3 182  TIP3 H1   HT            0.417         1.008       0
     788 TIP3 182  TIP3 H2   HT            0.417         1.008       0
     789 TIP3 183  TIP3 OH2  OT           -0.834       15.9994       0
     790 TIP3 183  TIP3 H1   HT            0.417         1.008       0
     791 TIP3 183  TIP3 H2   HT            0.417         1.008       0
     792 TIP3 184  TIP3 OH2  OT           -0.834       15.9994       0
     793 TIP3 184  TIP3 H1   HT            0.417         1.008       0
     794 TIP3 184  TIP3 H2   HT            0.417         1.008       0
     795 TIP3 185  TIP3 OH2  OT           -0.834       15.9994       0
     796 TIP3 185  TIP3 H1   HT            0.417         1.008       0
     797 TIP3 185  TIP3 H2   HT            0.417         1.008       0
     798 TIP3 186  TIP3 OH2  OT           -0.834       15.9994       0
     799 TIP3 186  TIP3 H1   HT            0.417         1.008       0
     800 TIP3 186  TIP3 H2   HT            0.417         1.008       0
     801 TIP3 187  TIP3 OH2  OT           -0.834       15.9994       0
     802 TIP3 187  TIP3 H1   HT            0.417         1.008       0
     803 TIP3 187  TIP3 H2   HT            0.417         1.008       0
     804 TIP3 188  TIP3 OH2  OT           -0.834       15.9994       0
     805 TIP3 188  TIP3 H1   HT            0.417         1.008       0
     806 TIP3 188  TIP3 H2   HT            0.417         1.008       0
     807 TIP3 189  TIP3 OH2  OT           -0.834       15.9994       0
     808 TIP3 189  TIP3 H1   HT            0.417         1.008       0
     809 TIP3 189  TIP3 H2   HT            0.417         1.008       0
     810 TIP3 190  TIP3 OH2  OT           -0.834       15.9994       0
     811 TIP3 190  TIP3 H1   HT            0.417         1.008       0
     812 TIP3 190  TIP3 H2   HT            0.417         1.008       0
     813 TIP3 191  TIP3 OH2  OT           -0.834       15.9994       0
     814 TIP3 191  TIP3 H1   HT            0.417         1.008       0
     815 TIP3 191  TIP3 H2   HT            0.417         1.008       0
     816 TIP3 192  TIP3 OH2  OT           -0.834       15.9994       0
     817 TIP3 192  TIP3 H1   HT            0.417         1.008       0
     818 TIP3 192  TIP3 H2   HT            0.417         1.008       0
     819 TIP3 193  TIP3 OH2  OT           -0.834       15.9994       0
     820 TIP3 193  TIP3 H1   HT            0.417         1.008       0
     821 TIP3 193  TIP3 H2   HT            0.417         1.008       0
     822 TIP3 194  TIP3 OH2  OT           -0.834       15.9994       0
     823 TIP3 194  TIP3 H1   HT            0.417         1.008       0
     824 TIP3 194  TIP3 H2   HT            0.417         1.008       0
     825 TIP3 195  TIP3 OH2  OT           -0.834       15.9994       0
     826 TIP3 195  TIP3 H1   HT            0.417         1.008       0
     827 TIP3 195  TIP3 H2   HT            0.417         1.008       0
     828 TIP3 196  TIP3 OH2  OT           -0.834       15.9994       0
     829 TIP3 196  TIP3 H1   HT            0.417         1.008       0
     830 TIP3 196  TIP3 H2   HT            0.417         1.008       0
     831 TIP3 197  TIP3 OH2  OT           -0.834       15.9994       0
     832 TIP3 197  TIP3 H1   HT            0.417         1.008       0
     833 TIP3 197  TIP3 H2   HT            0.417         1.008       0
     834 TIP3 198  TIP3 OH2  OT           -0.834       15.9994       0
     835 TIP3 198  TIP3 H1   HT            0.417         1.008       0
     836 TIP3 198  TIP3 H2   HT            0.417         1.008       0
     837 TIP3 199  TIP3 OH2  OT           -0.834       15.9994       0
     838 TIP3 199  TIP3 H1   HT            0.417         1.008       0
     839 TIP3 199  TIP3 H2   HT            0.417         1.008       0
     840 TIP3 200  TIP3 OH2  OT           -0.834       15.9994       0
     841 TIP3 200  TIP3 H1   HT            0.417         1.008       0
     842 TIP3 200  TIP3 H2   HT            0.417         1.008       0
     843 TIP3 201  TIP3 OH2  OT           -0.834       15.9994       0
     844 TIP3 201  TIP3 H1   HT            0.417         1.008       0
     845 TIP3 201  TIP3 H2   HT            0.417         1.008       0
     846 TIP3 202  TIP3 OH2  OT           -0.834       15.9994       0
     847 TIP3 202  TIP3 H1   HT            0.417         1.008       0
     848 TIP3 202  TIP3 H2   HT            0.417         1.008       0
     849 TIP3 203  TIP3 OH2  OT           -0.834       15.9994       0
     850 TIP3 203  TIP3 H1   HT            0.417         1.008       0
     851 TIP3 203  TIP3 H2   HT            0.417         1.008       0
     852 TIP3 204  TIP3 OH2  OT           -0.834       15.9994       0
     853 TIP3 204  TIP3 H1   HT            0.417         1.008       0
     854 TIP3 204  TIP3 H2   HT            0.417         1.008       0
     855 TIP3 205  TIP3 OH2  OT           -0.834       15.9994       0
     856 TIP3 205  TIP3 H1   HT            0.417         1.008       0
     857 TIP3 205  TIP3 H2   HT            0.417         1.008       0
     858 TIP3 206  TIP3 OH2  OT           -0.834       15.9994       0
     859 TIP3 206  TIP3 H1   HT            0.417         1.008       0
     860 TIP3 206  TIP3 H2   HT            0.417         1.008       0
     861 TIP3 207  TIP3 OH2  OT           -0.834       15.9994       0
     862 TIP3 207  TIP3 H1   HT            0.417         1.008       0
     863 TIP3 207  TIP3 H2   HT            0.417         1.008       0
     864 TIP3 208  TIP3 OH2  OT           -0.834       15.9994       0
     865 TIP3 208  TIP3 H1   HT            0.417         1.008       0
     866 TIP3 208  TIP3 H2   HT            0.417         1.008       0
     867 TIP3 209  TIP3 OH2  OT           -0.834       15.9994       0
     868 TIP3 209  TIP3 H1   HT            0.417         1.008       0
     869 TIP3 209  TIP3 H2   HT            0.417         1.008       0
     870 TIP3 210  TIP3 OH2  OT           -0.834       15.9994       0
     871 TIP3 210  TIP3 H1   HT            0.417         1.008       0
     872 TIP3 210  TIP3 H2   HT            0.417         1.008       0
     873 TIP3 211  TIP3 OH2  OT           -0.834       15.9994       0
     874 TIP3 211  TIP3 H1   HT            0.417         1.008       0
     875 TIP3 211  TIP3 H2   HT            0.417         1.008       0
     876 TIP3 212  TIP3 OH2  OT           -0.834       15.9994       0
     877 TIP3 212  TIP3 H1   HT            0.417         1.008       0
     878 TIP3 212  TIP3 H2   HT            0.417         1.008       0
     879 TIP3 213  TIP3 OH2  OT           -0.834       15.9994       0
     880 TIP3 213  TIP3 H1   HT            0.417         1.008       0
     881 TIP3 213  TIP3 H2   HT            0.417         1.008       0
     882 TIP3 214  TIP3 OH2  OT           -0.834       15.9994       0
     883 TIP3 214  TIP3 H1   HT            0.417         1.008       0
     884 TIP3 214  TIP3 H2   HT            0.417         1.008       0
     885 TIP3 215  TIP3 OH2  OT           -0.834       15.9994       0
     886 TIP3 215  TIP3 H1   HT            0.417         1.008       0
     887 TIP3 215  TIP3 H2   HT            0.417         1.008       0
     888 TIP3 216  TIP3 OH2  OT           -0.834       15.9994       0
     889 TIP3 216  TIP3 H1   HT            0.417         1.008       0
     890 TIP3 216  TIP3 H2   HT            0.417         1.008       0
     891 TIP3 217  TIP3 OH2  OT           -0.834       15.9994       0
     892 TIP3 217  TIP3 H1   HT            0.417         1.008       0
     893 TIP3 217  TIP3 H2   HT            0.417         1.008       0
     894 TIP3 218  TIP3 OH2  OT           -0.834       15.9994       0
     895 TIP3 218  TIP3 H1   HT            0.417         1.008       0
     896 TIP3 218  TIP3 H2   HT            0.417         1.008       0
     897 TIP3 219  TIP3 OH2  OT           -0.834       15.9994       0
     898 TIP3 219  TIP3 H1   HT            0.417         1.008       0
     899 TIP3 219  TIP3 H2   HT            0.417         1.008       0
     900 TIP3 220  TIP3 OH2  OT           -0.834       15.9994       0
     901 TIP3 220  TIP3 H1   HT            0.417         1.008       0
     902 TIP3 220  TIP3 H2   HT            0.417         1.008       0
     903 TIP3 221  TIP3 OH2  OT           -0.834       15.9994       0
     904 TIP3 221  TIP3 H1   HT            0.417         1.008       0
     905 TIP3 221  TIP3 H2   HT            0.417         1.008       0
     906 TIP3 222  TIP3 OH2  OT           -0.834       15.9994       0
     907 TIP3 222  TIP3 H1   HT            0.417         1.008       0
     908 TIP3 222  TIP3 H2   HT            0.417         1.008       0
     909 TIP3 223  TIP3 OH2  OT           -0.834       15.9994       0
     910 TIP3 223  TIP3 H1   HT            0.417         1.008       0
     911 TIP3 223  TIP3 H2   HT            0.417         1.008       0
     912 TIP3 224  TIP3 OH2  OT           -0.834       15.9994       0
     913 TIP3 224  TIP3 H1   HT            0.417         1.008       0
     914 TIP3 224  TIP3 H2   HT            0.417         1.008       0
     915 TIP3 225  TIP3 OH2  OT           -0.834       15.9994       0
     916 TIP3 225  TIP3 H1   HT            0.417         1.008       0
     917 TIP3 225  TIP3 H2   HT            0.417         1.008       0
     918 TIP3 226  TIP3 OH2  OT           -0.834       15.9994       0
     919 TIP3 226  TIP3 H1   HT            0.417         1.008       0
     920 TIP3 226  TIP3 H2   HT            0.417         1.008       0
     921 TIP3 227  TIP3 OH2  OT           -0.834       15.9994       0
     922 TIP3 227  TIP3 H1   HT            0.417         1.008       0
     923 TIP3 227  TIP3 H2   HT            0.417         1.008       0
     924 TIP3 228  TIP3 OH2  OT           -0.834       15.9994       0
     925 TIP3 228  TIP3 H1   HT            0.417         1.008       0
     926 TIP3 228  TIP3 H2   HT            0.417         1.008       0
     927 TIP3 229  TIP3 OH2  OT           -0.834       15.9994       0
     928 TIP3 229  TIP3 H1   HT            0.417         1.008       0
     929 TIP3 229  TIP3 H2   HT            0.417         1.008       0
     930 TIP3 230  TIP3 OH2  OT           -0.834       15.9994       0
     931 TIP3 230  TIP3 H1   HT            0.417         1.008       0
     932 TIP3 230  TIP3 H2   HT            0.417         1.008       0
     933 TIP3 231  TIP3 OH2  OT           -0.834       15.9994       0
     934 TIP3 231  TIP3 H1   HT            0.417         1.008       0
     935 TIP3 231  TIP3 H2   HT            0.417         1.008       0
     936 TIP3 232  TIP3 OH2  OT           -0.834       15.9994       0
     937 TIP3 232  TIP3 H1   HT            0.417         1.008       0
     938 TIP3 232  TIP3 H2   HT            0.417         1.008       0
     939 TIP3 233  TIP3 OH2  OT           -0.834       15.9994       0
     940 TIP3 233  TIP3 H1   HT            0.417         1.008       0
     941 TIP3 233  TIP3 H2   HT            0.417         1.008       0
     942 TIP3 234  TIP3 OH2  OT           -0.834       15.9994       0
     943 TIP3 234  TIP3 H1   HT            0.417         1.008       0
     944 TIP3 234  TIP3 H2   HT            0.417         1.008       0
     945 TIP3 235  TIP3 OH2  OT           -0.834       15.9994       0
     946 TIP3 235  TIP3 H1   HT            0.417         1.008       0
     947 TIP3 235  TIP3 H2   HT            0.417         1.008       0
     948 TIP3 236  TIP3 OH2  OT           -0.834       15.9994       0
     949 TIP3 236  TIP3 H1   HT            0.417         1.008       0
     950 TIP3 236  TIP3 H2   HT            0.417         1.008       0
     951 TIP3 237  TIP3 OH2  OT           -0.834       15.9994       0
     952 TIP3 237  TIP3 H1   HT            0.417         1.008       0
     953 TIP3 237  TIP3 H2   HT            0.417         1.008       0
     954 TIP3 238  TIP3 OH2  OT           -0.834       15.9994       0
     955 TIP3 238  TIP3 H1   HT            0.417         1.008       0
     956 TIP3 238  TIP3 H2   HT            0.417         1.008       0
     957 TIP3 239  TIP3 OH2  OT           -0.834       15.9994       0
     958 TIP3 239  TIP3 H1   HT            0.417         1.008       0
     959 TIP3 239  TIP3 H2   HT            0.417         1.008       0
     960 TIP3 240  TIP3 OH2  OT           -0.834       15.9994       0
     961 TIP3 240  TIP3 H1   HT            0.417         1.008       0
     962 TIP3 240  TIP3 H2   HT            0.417         1.008       0
     963 TIP3 241  TIP3 OH2  OT           -0.834       15.9994       0
     964 TIP3 241  TIP3 H1   HT            0.417         1.008       0
     965 TIP3 241  TIP3 H2   HT            0.417         1.008       0
     966 TIP3 242  TIP3 OH2  OT           -0.834       15.9994       0
     967 TIP3 242  TIP3 H1   HT            0.417         1.008       0
     968 TIP3 242  TIP3 H2   HT            0.417         1.008       0
     969 TIP3 243  TIP3 OH2  OT           -0.834       15.9994       0
     970 TIP3 243  TIP3 H1   HT            0.417         1.008       0
     971 TIP3 243  TIP3 H2   HT            0.417         1.008       0
     972 TIP3 244  TIP3 OH2  OT           -0.834       15.9994       0
     973 TIP3 244  TIP3 H1   HT            0.417         1.008       0
     974 TIP3 244  TIP3 H2   HT            0.417         1.008       0
     975 TIP3 245  TIP3 OH2  OT           -0.834       15.9994       0
     976 TIP3 245  TIP3 H1   HT            0.417         1.008       0
     977 TIP3 245  TIP3 H2   HT            0.417         1.008       0
     978 TIP3 246  TIP3 OH2  OT           -0.834       15.9994       0
     979 TIP3 246  TIP3 H1   HT            0.417         1.008       0
     980 TIP3 246  TIP3 H2   HT            0.417         1.008       0
     981 TIP3 247  TIP3 OH2  OT           -0.834       15.9994       0
     982 TIP3 247  TIP3 H1   HT            0.417         1.008       0
     983 TIP3 247  TIP3 H2   HT            0.417         1.008       0
     984 TIP3 248  TIP3 OH2  OT           -0.834       15.9994       0
     985 TIP3 248  TIP3 H1   HT            0.417         1.008       0
     986 TIP3 248  TIP3 H2   HT            0.417         1.008       0
     987 TIP3 249  TIP3 OH2  OT           -0.834       15.9994       0
     988 TIP3 249  TIP3 H1   HT            0.417         1.008       0
     989 TIP3 249  TIP3 H2   HT            0.417         1.008       0
     990 TIP3 250  TIP3 OH2  OT           -0.834       15.9994       0
     991 TIP3 250  TIP3 H1   HT            0.417         1.008       0
     992 TIP3 250  TIP3 H2   HT            0.417         1.008       0
     993 TIP3 251  TIP3 OH2  OT           -0.834       15.9994       0
     994 TIP3 251  TIP3 H1   HT            0.417         1.008       0
     995 TIP3 251  TIP3 H2   HT            0.417         1.008       0
     996 TIP3 252  TIP3 OH2  OT           -0.834       15.9994       0
     997 TIP3 252  TIP3 H1   HT            0.417         1.008       0
     998 TIP3 252  TIP3 H2   HT            0.417         1.008       0
     999 TIP3 253  TIP3 OH2  OT           -0.834       15.9994       0
    1000 TIP3 253  TIP3 H1   HT            0.417         1.008       0
    1001 TIP3 253  TIP3 H2   HT            0.417         1.008       0
    1002 TIP3 254  TIP3 OH2  OT           -0.834       15.9994       0
    1003 TIP3 254  TIP3 H1   HT            0.417         1.008       0
    1004 TIP3 254  TIP3 H2   HT            0.417         1.008       0
    1005 TIP3 255  TIP3 OH2  OT           -0.834       15.9994       0
    1006 TIP3 255  TIP3 H1   HT            0.417         1.008       0
    1007 TIP3 255  TIP3 H2   HT            0.417         1.008       0
    1008 TIP3 256  TIP3 OH2  OT           -0.834       15.9994       0
    1009 TIP3 256  TIP3 H1   HT            0.417         1.008       0
    1010 TIP3 256  TIP3 H2   HT            0.417         1.008       0
    1011 TIP3 257  TIP3 OH2  OT           -0.834       15.9994       0
    1012 TIP3 257  TIP3 H1   HT            0.417         1.008       0
    1013 TIP3 257  TIP3 H2   HT            0.417         1.008       0
    1014 TIP3 258  TIP3 OH2  OT           -0.834       15.9994       0
    1015 TIP3 258  TIP3 H1   HT            0.417         1.008       0
    1016 TIP3 258  TIP3 H2   HT            0.417         1.008       0
    1017 TIP3 259  TIP3 OH2  OT           -0.834       15.9994       0
    1018 TIP3 259  TIP3 H1   HT            0.417         1.008       0
    1019 TIP3 259  TIP3 H2   HT            0.417         1.008       0
    1020 TIP3 260  TIP3 OH2  OT           -0.834       15.9994       0
    1021 TIP3 260  TIP3 H1   HT            0.417         1.008       0
    1022 TIP3 260  TIP3 H2   HT            0.417         1.008       0
    1023 TIP3 261  TIP3 OH2  OT           -0.834       15.9994       0
    1024 TIP3 261  TIP3 H1   HT            0.417         1.008       0
    1025 TIP3 261  TIP3 H2   HT            0.417         1.008       0
    1026 TIP3 262  TIP3 OH2  OT           -0.834       15.9994       0
    1027 TIP3 262  TIP3 H1   HT            0.417         1.008       0
    1028 TIP3 262  TIP3 H2   HT            0.417         1.008       0
    1029 TIP3 263  TIP3 OH2  OT           -0.834       15.9994       0
    1030 TIP3 263  TIP3 H1   HT            0.417         1.008       0
    1031 TIP3 263  TIP3 H2   HT            0.417         1.008       0
    1032 TIP3 264  TIP3 OH2  OT           -0.834       15.9994       0
    1033 TIP3 264  TIP3 H1   HT            0.417         1.008       0
    1034 TIP3 264  TIP3 H2   HT            0.417         1.008       0
    1035 TIP3 265  TIP3 OH2  OT           -0.834       15.9994       0
    1036 TIP3 265  TIP3 H1   HT            0.417         1.008       0
    1037 TIP3 265  TIP3 H2   HT            0.417         1.008       0
    1038 TIP3 266  TIP3 OH2  OT           -0.834       15.9994       0
    1039 TIP3 266  TIP3 H1   HT            0.417         1.008       0
    1040 TIP3 266  TIP3 H2   HT            0.417         1.008       0
    1041 TIP3 267  TIP3 OH2  OT           -0.834       15.9994       0
    1042 TIP3 267  TIP3 H1   HT            0.417         1.008       0
    1043 TIP3 267  TIP3 H2   HT            0.417         1.008       0
    1044 TIP3 268  TIP3 OH2  OT           -0.834       15.9994       0
    1045 TIP3 268  TIP3 H1   HT            0.417         1.008       0
    1046 TIP3 268  TIP3 H2   HT            0.417         1.008       0
    1047 TIP3 269  TIP3 OH2  OT           -0.834       15.9994       0
    1048 TIP3 269  TIP3 H1   HT            0.417         1.008       0
    1049 TIP3 269  TIP3 H2   HT            0.417         1.008       0
    1050 TIP3 270  TIP3 OH2  OT           -0.834       15.9994       0
    1051 TIP3 270  TIP3 H1   HT            0.417         1.008       0
    1052 TIP3 270  TIP3 H2   HT            0.417         1.008       0
    1053 TIP3 271  TIP3 OH2  OT           -0.834       15.9994       0
    1054 TIP3 271  TIP3 H1   HT            0.417         1.008       0
    1055 TIP3 271  TIP3 H2   HT            0.417         1.008       0
    1056 TIP3 272  TIP3 OH2  OT           -0.834       15.9994       0
    1057 TIP3 272  TIP3 H1   HT            0.417         1.008       0
    1058 TIP3 272  TIP3 H2   HT            0.417         1.008       0
    1059 TIP3 273  TIP3 OH2  OT           -0.834       15.9994       0
    1060 TIP3 273  TIP3 H1   HT            0.417         1.008       0
    1061 TIP3 273  TIP3 H2   HT            0.417         1.008       0
    1062 TIP3 274  TIP3 OH2  OT           -0.834       15.9994       0
    1063 TIP3 274  TIP3 H1   HT            0.417         1.008       0
    1064 TIP3 274  TIP3 H2   HT            0.417         1.008       0
    1065 TIP3 275  TIP3 OH2  OT           -0.834       15.9994       0
    1066 TIP3 275  TIP3 H1   HT            0.417         1.008       0
    1067 TIP3 275  TIP3 H2   HT            0.417         1.008       0
    1068 TIP3 276  TIP3 OH2  OT           -0.834       15.9994       0
    1069 TIP3 276  TIP3 H1   HT            0.417         1.008       0
    1070 TIP3 276  TIP3 H2   HT            0.417         1.008       0
    1071 TIP3 277  TIP3 OH2  OT           -0.834       15.9994       0
    1072 TIP3 277  TIP3 H1   HT            0.417         1.008       0
    1073 TIP3 277  TIP3 H2   HT            0.417         1.008       0
    1074 TIP3 278  TIP3 OH2  OT           -0.834       15.9994       0
    1075 TIP3 278  TIP3 H1   HT            0.417         1.008       0
    1076 TIP3 278  TIP3 H2   HT            0.417         1.008       0
    1077 TIP3 279  TIP3 OH2  OT           -0.834       15.9994       0
    1078 TIP3 279  TIP3 H1   HT            0.417         1.008       0
    1079 TIP3 279  TIP3 H2   HT            0.417         1.008       0
    1080 TIP3 280  TIP3 OH2  OT           -0.834       15.9994       0
    1081 TIP3 280  TIP3 H1   HT            0.417         1.008       0
    1082 TIP3 280  TIP3 H2   HT            0.417         1.008       0
    1083 TIP3 281  TIP3 OH2  OT           -0.834       15.9994       0
    1084 TIP3 281  TIP3 H1   HT            0.417         1.008       0
    1085 TIP3 281  TIP3 H2   HT            0.417         1.008       0
    1086 TIP3 282  TIP3 OH2  OT           -0.834       15.9994       0
    1087 TIP3 282  TIP3 H1   HT            0.417         1.008       0
    1088 TIP3 282  TIP3 H2   HT            0.417         1.008       0
    1089 TIP3 283  TIP3 OH2  OT           -0.834       15.9994       0
    1090 TIP3 283  TIP3 H1   HT            0.417         1.008       0
    1091 TIP3 283  TIP3 H2   HT            0.417         1.008       0
    1092 TIP3 284  TIP3 OH2  OT           -0.834       15.9994       0
    1093 TIP3 284  TIP3 H1   HT            0.417         1.008       0
    1094 TIP3 284  TIP3 H2   HT            0.417         1.008       0
    1095 TIP3 285  TIP3 OH2  OT           -0.834       15.9994       0
    1096 TIP3 285  TIP3 H1   HT            0.417         1.008       0
    1097 TIP3 285  TIP3 H2   HT            0.417         1.008       0
    1098 TIP3 286  TIP3 OH2  OT           -0.834       15.9994       0
    1099 TIP3 286  TIP3 H1   HT            0.417         1.008       0
    1100 TIP3 286  TIP3 H2   HT            0.417         1.008       0
    1101 TIP3 287  TIP3 OH2  OT           -0.834       15.9994       0
    1102 TIP3 287  TIP3 H1   HT            0.417         1.008       0
    1103 TIP3 287  TIP3 H2   HT            0.417         1.008       0
    1104 TIP3 288  TIP3 OH2  OT           -0.834       15.9994       0
    1105 TIP3 288  TIP3 H1   HT            0.417         1.008       0
    1106 TIP3 288  TIP3 H2   HT            0.417         1.008       0
    1107 TIP3 289  TIP3 OH2  OT           -0.834       15.9994       0
    1108 TIP3 289  TIP3 H1   HT            0.417         1.008       0
    1109 TIP3 289  TIP3 H2   HT            0.417         1.008       0
    1110 TIP3 290  TIP3 OH2  OT           -0.834       15.9994       0
    1111 TIP3 290  TIP3 H1   HT            0.417         1.008       0
    1112 TIP3 290  TIP3 H2   HT            0.417         1.008       0
    1113 TIP3 291  TIP3 OH2  OT           -0.834       15.9994       0
    1114 TIP3 291  TIP3 H1   HT            0.417         1.008       0
    1115 TIP3 291  TIP3 H2   HT            0.417         1.008       0
    1116 TIP3 292  TIP3 OH2  OT           -0.834       15.9994       0
    1117 TIP3 292  TIP3 H1   HT            0.417         1.008       0
    1118 TIP3 292  TIP3 H2   HT            0.417         1.008       0
    1119 TIP3 293  TIP3 OH2  OT           -0.834       15.9994       0
    1120 TIP3 293  TIP3 H1   HT            0.417         1.008       0
    1121 TIP3 293  TIP3 H2   HT            0.417         1.008       0
    1122 TIP3 294  TIP3 OH2  OT           -0.834       15.9994       0
    1123 TIP3 294  TIP3 H1   HT            0.417         1.008       0
    1124 TIP3 294  TIP3 H2   HT            0.417         1.008       0
    1125 TIP3 295  TIP3 OH2  OT           -0.834       15.9994       0
    1126 TIP3 295  TIP3 H1   HT            0.417         1.008       0
    1127 TIP3 295  TIP3 H2   HT            0.417         1.008       0
    1128 TIP3 296  TIP3 OH2  OT           -0.834       15.9994       0
    1129 TIP3 296  TIP3 H1   HT            0.417         1.008       0
    1130 TIP3 296  TIP3 H2   HT            0.417         1.008       0
    1131 TIP3 297  TIP3 OH2  OT           -0.834       15.9994       0
    1132 TIP3 297  TIP3 H1   HT            0.417         1.008       0
    1133 TIP3 297  TIP3 H2   HT            0.417         1.008       0
    1134 TIP3 298  TIP3 OH2  OT           -0.834       15.9994       0
    1135 TIP3 298  TIP3 H1   HT            0.417         1.008       0
    1136 TIP3 298  TIP3 H2   HT            0.417         1.008       0
    1137 TIP3 299  TIP3 OH2  OT           -0.834       15.9994       0
    1138 TIP3 299  TIP3 H1   HT            0.417         1.008       0
    1139 TIP3 299  TIP3 H2   HT            0.417         1.008       0
    1140 TIP3 300  TIP3 OH2  OT           -0.834       15.9994       0
    1141 TIP3 300  TIP3 H1   HT            0.417         1.008       0
    1142 TIP3 300  TIP3 H2   HT            0.417         1.008       0
    1143 TIP3 301  TIP3 OH2  OT           -0.834       15.9994       0
    1144 TIP3 301  TIP3 H1   HT            0.417         1.008       0
    1145 TIP3 301  TIP3 H2   HT            0.417         1.008       0
    1146 TIP3 302  TIP3 OH2  OT           -0.834       15.9994       0
    1147 TIP3 302  TIP3 H1   HT            0.417         1.008       0
    1148 TIP3 302  TIP3 H2   HT            0.417         1.008       0
    1149 TIP3 303  TIP3 OH2  OT           -0.834       15.9994       0
    1150 TIP3 303  TIP3 H1   HT            0.417         1.008       0
    1151 TIP3 303  TIP3 H2   HT            0.417         1.008       0
    1152 TIP3 304  TIP3 OH2  OT           -0.834       15.9994       0
    1153 TIP3 304  TIP3 H1   HT            0.417         1.008       0
    1154 TIP3 304  TIP3 H2   HT            0.417         1.008       0
    1155 TIP3 305  TIP3 OH2  OT           -0.834       15.9994       0
    1156 TIP3 305  TIP3 H1   HT            0.417         1.008       0
    1157 TIP3 305  TIP3 H2   HT            0.417         1.008       0
    1158 TIP3 306  TIP3 OH2  OT           -0.834       15.9994       0
    1159 TIP3 306  TIP3 H1   HT            0.417         1.008       0
    1160 TIP3 306  TIP3 H2   HT            0.417         1.008       0
    1161 TIP3 307  TIP3 OH2  OT           -0.834       15.9994       0
    1162 TIP3 307  TIP3 H1   HT            0.417         1.008       0
    1163 TIP3 307  TIP3 H2   HT            0.417         1.008       0
    1164 TIP3 308  TIP3 OH2  OT           -0.834       15.9994       0
    1165 TIP3 308  TIP3 H1   HT            0.417         1.008       0
    1166 TIP3 308  TIP3 H2   HT            0.417         1.008       0
    1167 TIP3 309  TIP3 OH2  OT           -0.834       15.9994       0
    1168 TIP3 309  TIP3 H1   HT            0.417         1.008       0
    1169 TIP3 309  TIP3 H2   HT            0.417         1.008       0
    1170 TIP3 310  TIP3 OH2  OT           -0.834       15.9994       0
    1171 TIP3 310  TIP3 H1   HT            0.417         1.008       0
    1172 TIP3 310  TIP3 H2   HT            0.417         1.008       0
    1173 TIP3 311  TIP3 OH2  OT           -0.834       15.9994       0
    1174 TIP3 311  TIP3 H1   HT            0.417         1.008       0
    1175 TIP3 311  TIP3 H2   HT            0.417         1.008       0
    1176 TIP3 312  TIP3 OH2  OT           -0.834       15.9994       0
    1177 TIP3 312  TIP3 H1   HT            0.417         1.008       0
    1178 TIP3 312  TIP3 H2   HT            0.417         1.008       0
    1179 TIP3 313  TIP3 OH2  OT           -0.834       15.9994       0
    1180 TIP3 313  TIP3 H1   HT            0.417         1.008       0
    1181 TIP3 313  TIP3 H2   HT            0.417         1.008       0
    1182 TIP3 314  TIP3 OH2  OT           -0.834       15.9994       0
    1183 TIP3 314  TIP3 H1   HT            0.417         1.008       0
    1184 TIP3 314  TIP3 H2   HT            0.417         1.008       0
    1185 TIP3 315  TIP3 OH2  OT           -0.834       15.9994       0
    1186 TIP3 315  TIP3 H1   HT            0.417         1.008       0
    1187 TIP3 315  TIP3 H2   HT            0.417         1.008       0
    1188 TIP3 316  TIP3 OH2  OT           -0.834       15.9994       0
    1189 TIP3 316  TIP3 H1   HT            0.417         1.008       0
    1190 TIP3 316  TIP3 H2   HT            0.417         1.008       0
    1191 TIP3 317  TIP3 OH2  OT           -0.834       15.9994       0
    1192 TIP3 317  TIP3 H1   HT            0.417         1.008       0
    1193 TIP3 317  TIP3 H2   HT            0.417         1.008       0
    1194 TIP3 318  TIP3 OH2  OT           -0.834       15.9994       0
    1195 TIP3 318  TIP3 H1   HT            0.417         1.008       0
    1196 TIP3 318  TIP3 H2   HT            0.417         1.008       0
    1197 TIP3 319  TIP3 OH2  OT           -0.834       15.9994       0
    1198 TIP3 319  TIP3 H1   HT            0.417         1.008       0
    1199 TIP3 319  TIP3 H2   HT            0.417         1.008       0
    1200 TIP3 320  TIP3 OH2  OT           -0.834       15.9994       0
    1201 TIP3 320  TIP3 H1   HT            0.417         1.008       0
    1202 TIP3 320  TIP3 H2   HT            0.417         1.008       0
    1203 TIP3 321  TIP3 OH2  OT           -0.834       15.9994       0
    1204 TIP3 321  TIP3 H1   HT            0.417         1.008       0
    1205 TIP3 321  TIP3 H2   HT            0.417         1.008       0
    1206 TIP3 322  TIP3 OH2  OT           -0.834       15.9994       0
    1207 TIP3 322  TIP3 H1   HT            0.417         1.008       0
    1208 TIP3 322  TIP3 H2   HT            0.417         1.008       0
    1209 TIP3 323  TIP3 OH2  OT           -0.834       15.9994       0
    1210 TIP3 323  TIP3 H1   HT            0.417         1.008       0
    1211 TIP3 323  TIP3 H2   HT            0.417         1.008       0
    1212 TIP3 324  TIP3 OH2  OT           -0.834       15.9994       0
    1213 TIP3 324  TIP3 H1   HT            0.417         1.008       0
    1214 TIP3 324  TIP3 H2   HT            0.417         1.008       0
    1215 TIP3 325  TIP3 OH2  OT           -0.834       15.9994       0
    1216 TIP3 325  TIP3 H1   HT            0.417         1.008       0
    1217 TIP3 325  TIP3 H2   HT            0.417         1.008       0
    1218 TIP3 326  TIP3 OH2  OT           -0.834       15.9994       0
    1219 TIP3 326  TIP3 H1   HT            0.417         1.008       0
    1220 TIP3 326  TIP3 H2   HT            0.417         1.008       0
    1221 TIP3 327  TIP3 OH2  OT           -0.834       15.9994       0
    1222 TIP3 327  TIP3 H1   HT            0.417         1.008       0
    1223 TIP3 327  TIP3 H2   HT            0.417         1.008       0
    1224 TIP3 328  TIP3 OH2  OT           -0.834       15.9994       0
    1225 TIP3 328  TIP3 H1   HT            0.417         1.008       0
    1226 TIP3 328  TIP3 H2   HT            0.417         1.008       0
    1227 TIP3 329  TIP3 OH2  OT           -0.834       15.9994       0
    1228 TIP3 329  TIP3 H1   HT            0.417         1.008       0
    1229 TIP3 329  TIP3 H2   HT            0.417         1.008       0
    1230 TIP3 330  TIP3 OH2  OT           -0.834       15.9994       0
    1231 TIP3 330  TIP3 H1   HT            0.417         1.008       0
    1232 TIP3 330  TIP3 H2   HT            0.417         1.008       0
    1233 TIP3 331  TIP3 OH2  OT           -0.834       15.9994       0
    1234 TIP3 331  TIP3 H1   HT            0.417         1.008       0
    1235 TIP3 331  TIP3 H2   HT            0.417         1.008       0
    1236 TIP3 332  TIP3 OH2  OT           -0.834       15.9994       0
    1237 TIP3 332  TIP3 H1   HT            0.417         1.008       0
    1238 TIP3 332  TIP3 H2   HT            0.417         1.008       0
    1239 TIP3 333  TIP3 OH2  OT           -0.834       15.9994       0
    1240 TIP3 333  TIP3 H1   HT            0.417         1.008       0
    1241 TIP3 333  TIP3 H2   HT            0.417         1.008       0
    1242 TIP3 334  TIP3 OH2  OT           -0.834       15.9994       0
    1243 TIP3 334  TIP3 H1   HT            0.417         1.008       0
    1244 TIP3 334  TIP3 H2   HT            0.417         1.008       0
    1245 TIP3 335  TIP3 OH2  OT           -0.834       15.9994       0
    1246 TIP3 335  TIP3 H1   HT            0.417         1.008       0
    1247 TIP3 335  TIP3 H2   HT            0.417         1.008       0
    1248 TIP3 336  TIP3 OH2  OT           -0.834       15.9994       0
    1249 TIP3 336  TIP3 H1   HT            0.417         1.008       0
    1250 TIP3 336  TIP3 H2   HT            0.417         1.008       0
    1251 TIP3 337  TIP3 OH2  OT           -0.834       15.9994       0
    1252 TIP3 337  TIP3 H1   HT            0.417         1.008       0
    1253 TIP3 337  TIP3 H2   HT            0.417         1.008       0
    1254 TIP3 338  TIP3 OH2  OT           -0.834       15.9994       0
    1255 TIP3 338  TIP3 H1   HT            0.417         1.008       0
    1256 TIP3 338  TIP3 H2   HT            0.417         1.008       0
    1257 TIP3 339  TIP3 OH2  OT           -0.834       15.9994       0
    1258 TIP3 339  TIP3 H1   HT            0.417         1.008       0
    1259 TIP3 339  TIP3 H2   HT            0.417         1.008       0
    1260 TIP3 340  TIP3 OH2  OT           -0.834       15.9994       0
    1261 TIP3 340  TIP3 H1   HT            0.417         1.008       0
    1262 TIP3 340  TIP3 H2   HT            0.417         1.008       0
    1263 TIP3 341  TIP3 OH2  OT           -0.834       15.9994       0
    1264 TIP3 341  TIP3 H1   HT            0.417         1.008       0
    1265 TIP3 341  TIP3 H2   HT            0.417         1.008       0
    1266 TIP3 342  TIP3 OH2  OT           -0.834       15.9994       0
    1267 TIP3 342  TIP3 H1   HT            0.417         1.008       0
    1268 TIP3 342  TIP3 H2   HT            0.417         1.008       0
    1269 TIP3 343  TIP3 OH2  OT           -0.834       15.9994       0
    1270 TIP3 343  TIP3 H1   HT            0.417         1.008       0
    1271 TIP3 343  TIP3 H2   HT            0.417         1.008       0
    1272 TIP3 344  TIP3 OH2  OT           -0.834       15.9994       0
    1273 TIP3 344  TIP3 H1   HT            0.417         1.008       0
    1274 TIP3 344  TIP3 H2   HT            0.417         1.008       0
    1275 TIP3 345  TIP3 OH2  OT           -0.834       15.9994       0
    1276 TIP3 345  TIP3 H1   HT            0.417         1.008       0
    1277 TIP3 345  TIP3 H2   HT            0.417         1.008       0
    1278 TIP3 346  TIP3 OH2  OT           -0.834       15.9994       0
    1279 TIP3 346  TIP3 H1   HT            0.417         1.008       0
    1280 TIP3 346  TIP3 H2   HT            0.417         1.008       0
    1281 TIP3 347  TIP3 OH2  OT           -0.834       15.9994       0
    1282 TIP3 347  TIP3 H1   HT            0.417         1.008       0
    1283 TIP3 347  TIP3 H2   HT            0.417         1.008       0
    1284 TIP3 348  TIP3 OH2  OT           -0.834       15.9994       0
    1285 TIP3 348  TIP3 H1   HT            0.417         1.008       0
    1286 TIP3 348  TIP3 H2   HT            0.417         1.008       0
    1287 TIP3 349  TIP3 OH2  OT           -0.834       15.9994       0
    1288 TIP3 349  TIP3 H1   HT            0.417         1.008       0
    1289 TIP3 349  TIP3 H2   HT            0.417         1.008       0
    1290 TIP3 350  TIP3 OH2  OT           -0.834       15.9994       0
    1291 TIP3 350  TIP3 H1   HT            0.417         1.008       0
    1292 TIP3 350  TIP3 H2   HT            0.417         1.008       0
    1293 TIP3 351  TIP3 OH2  OT           -0.834       15.9994       0
    1294 TIP3 351  TIP3 H1   HT            0.417         1.008       0
    1295 TIP3 351  TIP3 H2   HT            0.417         1.008       0
    1296 TIP3 352  TIP3 OH2  OT           -0.834       15.9994       0
    1297 TIP3 352  TIP3 H1   HT            0.417         1.008       0
    1298 TIP3 352  TIP3 H2   HT            0.417         1.008       0
    1299 TIP3 353  TIP3 OH2  OT           -0.834       15.9994       0
    1300 TIP3 353  TIP3 H1   HT            0.417         1.008       0
    1301 TIP3 353  TIP3 H2   HT            0.417         1.008       0
    1302 TIP3 354  TIP3 OH2  OT           -0.834       15.9994       0
    1303 TIP3 354  TIP3 H1   HT            0.417         1.008       0
    1304 TIP3 354  TIP3 H2   HT            0.417         1.008       0
    1305 TIP3 355  TIP3 OH2  OT           -0.834       15.9994       0
    1306 TIP3 355  TIP3 H1   HT            0.417         1.008       0
    1307 TIP3 355  TIP3 H2   HT            0.417         1.008       0
    1308 TIP3 356  TIP3 OH2  OT           -0.834       15.9994       0
    1309 TIP3 356  TIP3 H1   HT            0.417         1.008       0
    1310 TIP3 356  TIP3 H2   HT            0.417         1.008       0
    1311 TIP3 357  TIP3 OH2  OT           -0.834       15.9994       0
    1312 TIP3 357  TIP3 H1   HT            0.417         1.008       0
    1313 TIP3 357  TIP3 H2   HT            0.417         1.008       0
    1314 TIP3 358  TIP3 OH2  OT           -0.834       15.9994       0
    1315 TIP3 358  TIP3 H1   HT            0.417         1.008       0
    1316 TIP3 358  TIP3 H2   HT            0.417         1.008       0
    1317 TIP3 359  TIP3 OH2  OT           -0.834       15.9994       0
    1318 TIP3 359  TIP3 H1   HT            0.417         1.008       0
    1319 TIP3 359  TIP3 H2   HT            0.417         1.008       0
    1320 TIP3 360  TIP3 OH2  OT           -0.834       15.9994       0
    1321 TIP3 360  TIP3 H1   HT            0.417         1.008       0
    1322 TIP3 360  TIP3 H2   HT            0.417         1.008       0
    1323 TIP3 361  TIP3 OH2  OT           -0.834       15.9994       0
    1324 TIP3 361  TIP3 H1   HT            0.417         1.008       0
    1325 TIP3 361  TIP3 H2   HT            0.417         1.008       0
    1326 TIP3 362  TIP3 OH2  OT           -0.834       15.9994       0
    1327 TIP3 362  TIP3 H1   HT            0.417         1.008       0
    1328 TIP3 362  TIP3 H2   HT            0.417         1.008       0
    1329 TIP3 363  TIP3 OH2  OT           -0.834       15.9994       0
    1330 TIP3 363  TIP3 H1   HT            0.417         1.008       0
    1331 TIP3 363  TIP3 H2   HT            0.417         1.008       0
    1332 TIP3 364  TIP3 OH2  OT           -0.834       15.9994       0
    1333 TIP3 364  TIP3 H1   HT            0.417         1.008       0
    1334 TIP3 364  TIP3 H2   HT            0.417         1.008       0
    1335 TIP3 365  TIP3 OH2  OT           -0.834       15.9994       0
    1336 TIP3 365  TIP3 H1   HT            0.417         1.008       0
    1337 TIP3 365  TIP3 H2   HT            0.417         1.008       0
    1338 TIP3 366  TIP3 OH2  OT           -0.834       15.9994       0
    1339 TIP3 366  TIP3 H1   HT            0.417         1.008       0
    1340 TIP3 366  TIP3 H2   HT            0.417         1.008       0
    1341 TIP3 367  TIP3 OH2  OT           -0.834       15.9994       0
    1342 TIP3 367  TIP3 H1   HT            0.417         1.008       0
    1343 TIP3 367  TIP3 H2   HT            0.417         1.008       0
    1344 TIP3 368  TIP3 OH2  OT           -0.834       15.9994       0
    1345 TIP3 368  TIP3 H1   HT            0.417         1.008       0
    1346 TIP3 368  TIP3 H2   HT            0.417         1.008       0
    1347 TIP3 369  TIP3 OH2  OT           -0.834       15.9994       0
    1348 TIP3 369  TIP3 H1   HT            0.417         1.008       0
    1349 TIP3 369  TIP3 H2   HT            0.417         1.008       0
    1350 TIP3 370  TIP3 OH2  OT           -0.834       15.9994       0
    1351 TIP3 370  TIP3 H1   HT            0.417         1.008       0
    1352 TIP3 370  TIP3 H2   HT            0.417         1.008       0
    1353 TIP3 371  TIP3 OH2  OT           -0.834       15.9994       0
    1354 TIP3 371  TIP3 H1   HT            0.417         1.008       0
    1355 TIP3 371  TIP3 H2   HT            0.417         1.008       0
    1356 TIP3 372  TIP3 OH2  OT           -0.834       15.9994       0
    1357 TIP3 372  TIP3 H1   HT            0.417         1.008       0
    1358 TIP3 372  TIP3 H2   HT            0.417         1.008       0
    1359 TIP3 373  TIP3 OH2  OT           -0.834       15.9994       0
    1360 TIP3 373  TIP3 H1   HT            0.417         1.008       0
    1361 TIP3 373  TIP3 H2   HT            0.417         1.008       0
    1362 TIP3 374  TIP3 OH2  OT           -0.834       15.9994       0
    1363 TIP3 374  TIP3 H1   HT            0.417         1.008       0
    1364 TIP3 374  TIP3 H2   HT            0.417         1.008       0
    1365 TIP3 375  TIP3 OH2  OT           -0.834       15.9994       0
    1366 TIP3 375  TIP3 H1   HT            0.417         1.008       0
    1367 TIP3 375  TIP3 H2   HT            0.417         1.008       0
    1368 TIP3 376  TIP3 OH2  OT           -0.834       15.9994       0
    1369 TIP3 376  TIP3 H1   HT            0.417         1.008       0
    1370 TIP3 376  TIP3 H2   HT            0.417         1.008       0
    1371 TIP3 377  TIP3 OH2  OT           -0.834       15.9994       0
    1372 TIP3 377  TIP3 H1   HT            0.417         1.008       0
    1373 TIP3 377  TIP3 H2   HT            0.417         1.008       0
    1374 TIP3 378  TIP3 OH2  OT           -0.834       15.9994       0
    1375 TIP3 378  TIP3 H1   HT            0.417         1.008       0
    1376 TIP3 378  TIP3 H2   HT            0.417         1.008       0
    1377 TIP3 379  TIP3 OH2  OT           -0.834       15.9994       0
    1378 TIP3 379  TIP3 H1   HT            0.417         1.008       0
    1379 TIP3 379  TIP3 H2   HT            0.417         1.008       0
    1380 TIP3 380  TIP3 OH2  OT           -0.834       15.9994       0
    1381 TIP3 380  TIP3 H1   HT            0.417         1.008       0
    1382 TIP3 380  TIP3 H2   HT            0.417         1.008       0
    1383 TIP3 381  TIP3 OH2  OT           -0.834       15.9994       0
    1384 TIP3 381  TIP3 H1   HT            0.417         1.008       0
    1385 TIP3 381  TIP3 H2   HT            0.417         1.008       0
    1386 TIP3 382  TIP3 OH2  OT           -0.834       15.9994       0
    1387 TIP3 382  TIP3 H1   HT            0.417         1.008       0
    1388 TIP3 382  TIP3 H2   HT            0.417         1.008       0
    1389 TIP3 383  TIP3 OH2  OT           -0.834       15.9994       0
    1390 TIP3 383  TIP3 H1   HT            0.417         1.008       0
    1391 TIP3 383  TIP3 H2   HT            0.417         1.008       0
    1392 TIP3 384  TIP3 OH2  OT           -0.834       15.9994       0
    1393 TIP3 384  TIP3 H1   HT            0.417         1.008       0
    1394 TIP3 384  TIP3 H2   HT            0.417         1.008       0
    1395 TIP3 385  TIP3 OH2  OT           -0.834       15.9994       0
    1396 TIP3 385  TIP3 H1   HT            0.417         1.008       0
    1397 TIP3 385  TIP3 H2   HT            0.417         1.008       0
    1398 TIP3 386  TIP3 OH2  OT           -0.834       15.9994       0
    1399 TIP3 386  TIP3 H1   HT            0.417         1.008       0
    1400 TIP3 386  TIP3 H2   HT            0.417         1.008       0
    1401 TIP3 387  TIP3 OH2  OT           -0.834       15.9994       0
    1402 TIP3 387  TIP3 H1   HT            0.417         1.008       0
    1403 TIP3 387  TIP3 H2   HT            0.417         1.008       0
    1404 TIP3 388  TIP3 OH2  OT           -0.834       15.9994       0
    1405 TIP3 388  TIP3 H1   HT            0.417         1.008       0
    1406 TIP3 388  TIP3 H2   HT            0.417         1.008       0
    1407 TIP3 389  TIP3 OH2  OT           -0.834       15.9994       0
    1408 TIP3 389  TIP3 H1   HT            0.417         1.008       0
    1409 TIP3 389  TIP3 H2   HT            0.417         1.008       0
    1410 TIP3 390  TIP3 OH2  OT           -0.834       15.9994       0
    1411 TIP3 390  TIP3 H1   HT            0.417         1.008       0
    1412 TIP3 390  TIP3 H2   HT            0.417         1.008       0
    1413 TIP3 391  TIP3 OH2  OT           -0.834       15.9994       0
    1414 TIP3 391  TIP3 H1   HT            0.417         1.008       0
    1415 TIP3 391  TIP3 H2   HT            0.417         1.008       0
    1416 TIP3 392  TIP3 OH2  OT           -0.834       15.9994       0
    1417 TIP3 392  TIP3 H1   HT            0.417         1.008       0
    1418 TIP3 392  TIP3 H2   HT            0.417         1.008       0
    1419 TIP3 393  TIP3 OH2  OT           -0.834       15.9994       0
    1420 TIP3 393  TIP3 H1   HT            0.417         1.008       0
    1421 TIP3 393  TIP3 H2   HT            0.417         1.008       0
    1422 TIP3 394  TIP3 OH2  OT           -0.834       15.9994       0
    1423 TIP3 394  TIP3 H1   HT            0.417         1.008       0
    1424 TIP3 394  TIP3 H2   HT            0.417         1.008       0
    1425 TIP3 395  TIP3 OH2  OT           -0.834       15.9994       0
    1426 TIP3 395  TIP3 H1   HT            0.417         1.008       0
    1427 TIP3 395  TIP3 H2   HT            0.417         1.008       0
    1428 TIP3 396  TIP3 OH2  OT           -0.834       15.9994       0
    1429 TIP3 396  TIP3 H1   HT            0.417         1.008       0
    1430 TIP3 396  TIP3 H2   HT            0.417         1.008       0
    1431 TIP3 397  TIP3 OH2  OT           -0.834       15.9994       0
    1432 TIP3 397  TIP3 H1   HT            0.417         1.008       0
    1433 TIP3 397  TIP3 H2   HT            0.417         1.008       0
    1434 TIP3 398  TIP3 OH2  OT           -0.834       15.9994       0
    1435 TIP3 398  TIP3 H1   HT            0.417         1.008       0
    1436 TIP3 398  TIP3 H2   HT            0.417         1.008       0
    1437 TIP3 399  TIP3 OH2  OT           -0.834       15.9994       0
    1438 TIP3 399  TIP3 H1   HT            0.417         1.008       0
    1439 TIP3 399  TIP3 H2   HT            0.417         1.008       0
    1440 TIP3 400  TIP3 OH2  OT           -0.834       15.9994       0
    1441 TIP3 400  TIP3 H1   HT            0.417         1.008       0
    1442 TIP3 400  TIP3 H2   HT            0.417         1.008       0
    1443 TIP3 401  TIP3 OH2  OT           -0.834       15.9994       0
    1444 TIP3 401  TIP3 H1   HT            0.417         1.008       0
    1445 TIP3 401  TIP3 H2   HT            0.417         1.008       0
    1446 TIP3 402  TIP3 OH2  OT           -0.834       15.9994       0
    1447 TIP3 402  TIP3 H1   HT            0.417         1.008       0
    1448 TIP3 402  TIP3 H2   HT            0.417         1.008       0
    1449 TIP3 403  TIP3 OH2  OT           -0.834       15.9994       0
    1450 TIP3 403  TIP3 H1   HT            0.417         1.008       0
    1451 TIP3 403  TIP3 H2   HT            0.417         1.008       0
    1452 TIP3 404  TIP3 OH2  OT           -0.834       15.9994       0
    1453 TIP3 404  TIP3 H1   HT            0.417         1.008       0
    1454 TIP3 404  TIP3 H2   HT            0.417         1.008       0
    1455 TIP3 405  TIP3 OH2  OT           -0.834       15.9994       0
    1456 TIP3 405  TIP3 H1   HT            0.417         1.008       0
    1457 TIP3 405  TIP3 H2   HT            0.417         1.008       0
    1458 TIP3 406  TIP3 OH2  OT           -0.834       15.9994       0
    1459 TIP3 406  TIP3 H1   HT            0.417         1.008       0
    1460 TIP3 406  TIP3 H2   HT            0.417         1.008       0
    1461 TIP3 407  TIP3 OH2  OT           -0.834       15.9994       0
    1462 TIP3 407  TIP3 H1   HT            0.417         1.008       0
    1463 TIP3 407  TIP3 H2   HT            0.417         1.008       0
    1464 TIP3 408  TIP3 OH2  OT           -0.834       15.9994       0
    1465 TIP3 408  TIP3 H1   HT            0.417         1.008       0
    1466 TIP3 408  TIP3 H2   HT            0.417         1.008       0
    1467 TIP3 409  TIP3 OH2  OT           -0.834       15.9994       0
    1468 TIP3 409  TIP3 H1   HT            0.417         1.008       0
    1469 TIP3 409  TIP3 H2   HT            0.417         1.008       0
    1470 TIP3 410  TIP3 OH2  OT           -0.834       15.9994       0
    1471 TIP3 410  TIP3 H1   HT            0.417         1.008       0
    1472 TIP3 410  TIP3 H2   HT            0.417         1.008       0
    1473 TIP3 411  TIP3 OH2  OT           -0.834       15.9994       0
    1474 TIP3 411  TIP3 H1   HT            0.417         1.008       0
    1475 TIP3 411  TIP3 H2   HT            0.417         1.008       0
    1476 TIP3 412  TIP3 OH2  OT           -0.834       15.9994       0
    1477 TIP3 412  TIP3 H1   HT            0.417         1.008       0
    1478 TIP3 412  TIP3 H2   HT            0.417         1.008       0
    1479 TIP3 413  TIP3 OH2  OT           -0.834       15.9994       0
    1480 TIP3 413  TIP3 H1   HT            0.417         1.008       0
    1481 TIP3 413  TIP3 H2   HT            0.417         1.008       0
    1482 TIP3 414  TIP3 OH2  OT           -0.834       15.9994       0
    1483 TIP3 414  TIP3 H1   HT            0.417         1.008       0
    1484 TIP3 414  TIP3 H2   HT            0.417         1.008       0
    1485 TIP3 415  TIP3 OH2  OT           -0.834       15.9994       0
    1486 TIP3 415  TIP3 H1   HT            0.417         1.008       0
    1487 TIP3 415  TIP3 H2   HT            0.417         1.008       0
    1488 TIP3 416  TIP3 OH2  OT           -0.834       15.9994       0
    1489 TIP3 416  TIP3 H1   HT            0.417         1.008       0
    1490 TIP3 416  TIP3 H2   HT            0.417         1.008       0
    1491 TIP3 417  TIP3 OH2  OT           -0.834       15.9994       0
    1492 TIP3 417  TIP3 H1   HT            0.417         1.008       0
    1493 TIP3 417  TIP3 H2   HT            0.417         1.008       0
    1494 TIP3 418  TIP3 OH2  OT           -0.834       15.9994       0
    1495 TIP3 418  TIP3 H1   HT            0.417         1.008       0
    1496 TIP3 418  TIP3 H2   HT            0.417         1.008       0
    1497 TIP3 419  TIP3 OH2  OT           -0.834       15.9994       0
    1498 TIP3 419  TIP3 H1   HT            0.417         1.008       0
    1499 TIP3 419  TIP3 H2   HT            0.417         1.008       0
    1500 TIP3 420  TIP3 OH2  OT           -0.834       15.9994       0
    1501 TIP3 420  TIP3 H1   HT            0.417         1.008       0
    1502 TIP3 420  TIP3 H2   HT            0.417         1.008       0
    1503 TIP3 421  TIP3 OH2  OT           -0.834       15.9994       0
    1504 TIP3 421  TIP3 H1   HT            0.417         1.008       0
    1505 TIP3 421  TIP3 H2   HT            0.417         1.008       0
    1506 TIP3 422  TIP3 OH2  OT           -0.834       15.9994       0
    1507 TIP3 422  TIP3 H1   HT            0.417         1.008       0
    1508 TIP3 422  TIP3 H2   HT            0.417         1.008       0
    1509 TIP3 423  TIP3 OH2  OT           -0.834       15.9994       0
    1510 TIP3 423  TIP3 H1   HT            0.417         1.008       0
    1511 TIP3 423  TIP3 H2   HT            0.417         1.008       0
    1512 TIP3 424  TIP3 OH2  OT           -0.834       15.9994       0
    1513 TIP3 424  TIP3 H1   HT            0.417         1.008       0
    1514 TIP3 424  TIP3 H2   HT            0.417         1.008       0
    1515 TIP3 425  TIP3 OH2  OT           -0.834       15.9994       0
    1516 TIP3 425  TIP3 H1   HT            0.417         1.008       0
    1517 TIP3 425  TIP3 H2   HT            0.417         1.008       0
    1518 TIP3 426  TIP3 OH2  OT           -0.834       15.9994       0
    1519 TIP3 426  TIP3 H1   HT            0.417         1.008       0
    1520 TIP3 426  TIP3 H2   HT            0.417         1.008       0
    1521 TIP3 427  TIP3 OH2  OT           -0.834       15.9994       0
    1522 TIP3 427  TIP3 H1   HT            0.417         1.008       0
    1523 TIP3 427  TIP3 H2   HT            0.417         1.008       0
    1524 TIP3 428  TIP3 OH2  OT           -0.834       15.9994       0
    1525 TIP3 428  TIP3 H1   HT            0.417         1.008       0
    1526 TIP3 428  TIP3 H2   HT            0.417         1.008       0
    1527 TIP3 429  TIP3 OH2  OT           -0.834       15.9994       0
    1528 TIP3 429  TIP3 H1   HT            0.417         1.008       0
    1529 TIP3 429  TIP3 H2   HT            0.417         1.008       0
    1530 TIP3 430  TIP3 OH2  OT           -0.834       15.9994       0
    1531 TIP3 430  TIP3 H1   HT            0.417         1.008       0
    1532 TIP3 430  TIP3 H2   HT            0.417         1.008       0
    1533 TIP3 431  TIP3 OH2  OT           -0.834       15.9994       0
    1534 TIP3 431  TIP3 H1   HT            0.417         1.008       0
    1535 TIP3 431  TIP3 H2   HT            0.417         1.008       0
    1536 TIP3 432  TIP3 OH2  OT           -0.834       15.9994       0
    1537 TIP3 432  TIP3 H1   HT            0.417         1.008       0
    1538 TIP3 432  TIP3 H2   HT            0.417         1.008       0
    1539 TIP3 433  TIP3 OH2  OT           -0.834       15.9994       0
    1540 TIP3 433  TIP3 H1   HT            0.417         1.008       0
    1541 TIP3 433  TIP3 H2   HT            0.417         1.008       0
    1542 TIP3 434  TIP3 OH2  OT           -0.834       15.9994       0
    1543 TIP3 434  TIP3 H1   HT            0.417         1.008       0
    1544 TIP3 434  TIP3 H2   HT            0.417         1.008       0
    1545 TIP3 435  TIP3 OH2  OT           -0.834       15.9994       0
    1546 TIP3 435  TIP3 H1   HT            0.417         1.008       0
    1547 TIP3 435  TIP3 H2   HT            0.417         1.008       0
    1548 TIP3 436  TIP3 OH2  OT           -0.834       15.9994       0
    1549 TIP3 436  TIP3 H1   HT            0.417         1.008       0
    1550 TIP3 436  TIP3 H2   HT            0.417         1.008       0
    1551 TIP3 437  TIP3 OH2  OT           -0.834       15.9994       0
    1552 TIP3 437  TIP3 H1   HT            0.417         1.008       0
    1553 TIP3 437  TIP3 H2   HT            0.417         1.008       0
    1554 TIP3 438  TIP3 OH2  OT           -0.834       15.9994       0
    1555 TIP3 438  TIP3 H1   HT            0.417         1.008       0
    1556 TIP3 438  TIP3 H2   HT            0.417         1.008       0
    1557 TIP3 439  TIP3 OH2  OT           -0.834       15.9994       0
    1558 TIP3 439  TIP3 H1   HT            0.417         1.008       0
    1559 TIP3 439  TIP3 H2   HT            0.417         1.008       0
    1560 TIP3 440  TIP3 OH2  OT           -0.834       15.9994       0
    1561 TIP3 440  TIP3 H1   HT            0.417         1.008       0
    1562 TIP3 440  TIP3 H2   HT            0.417         1.008       0
    1563 TIP3 441  TIP3 OH2  OT           -0.834       15.9994       0
    1564 TIP3 441  TIP3 H1   HT            0.417         1.008       0
    1565 TIP3 441  TIP3 H2   HT            0.417         1.008       0
    1566 TIP3 442  TIP3 OH2  OT           -0.834       15.9994       0
    1567 TIP3 442  TIP3 H1   HT            0.417         1.008       0
    1568 TIP3 442  TIP3 H2   HT            0.417         1.008       0
    1569 TIP3 443  TIP3 OH2  OT           -0.834       15.9994       0
    1570 TIP3 443  TIP3 H1   HT            0.417         1.008       0
    1571 TIP3 443  TIP3 H2   HT            0.417         1.008       0
    1572 TIP3 444  TIP3 OH2  OT           -0.834       15.9994       0
    1573 TIP3 444  TIP3 H1   HT            0.417         1.008       0
    1574 TIP3 444  TIP3 H2   HT            0.417         1.008       0
    1575 TIP3 445  TIP3 OH2  OT           -0.834       15.9994       0
    1576 TIP3 445  TIP3 H1   HT            0.417         1.008       0
    1577 TIP3 445  TIP3 H2   HT            0.417         1.008       0
    1578 TIP3 446  TIP3 OH2  OT           -0.834       15.9994       0
    1579 TIP3 446  TIP3 H1   HT            0.417         1.008       0
    1580 TIP3 446  TIP3 H2   HT            0.417         1.008       0
    1581 TIP3 447  TIP3 OH2  OT           -0.834       15.9994       0
    1582 TIP3 447  TIP3 H1   HT            0.417         1.008       0
    1583 TIP3 447  TIP3 H2   HT            0.417         1.008       0
    1584 TIP3 448  TIP3 OH2  OT           -0.834       15.9994       0
    1585 TIP3 448  TIP3 H1   HT            0.417         1.008       0
    1586 TIP3 448  TIP3 H2   HT            0.417         1.008       0
    1587 TIP3 449  TIP3 OH2  OT           -0.834       15.9994       0
    1588 TIP3 449  TIP3 H1   HT            0.417         1.008       0
    1589 TIP3 449  TIP3 H2   HT            0.417         1.008       0
    1590 TIP3 450  TIP3 OH2  OT           -0.834       15.9994       0
    1591 TIP3 450  TIP3 H1   HT            0.417         1.008       0
    1592 TIP3 450  TIP3 H2   HT            0.417         1.008       0
    1593 TIP3 451  TIP3 OH2  OT           -0.834       15.9994       0
    1594 TIP3 451  TIP3 H1   HT            0.417         1.008       0
    1595 TIP3 451  TIP3 H2   HT            0.417         1.008       0
    1596 TIP3 452  TIP3 OH2  OT           -0.834       15.9994       0
    1597 TIP3 452  TIP3 H1   HT            0.417         1.008       0
    1598 TIP3 452  TIP3 H2   HT            0.417         1.008       0
    1599 TIP3 453  TIP3 OH2  OT           -0.834       15.9994       0
    1600 TIP3 453  TIP3 H1   HT            0.417         1.008       0
    1601 TIP3 453  TIP3 H2   HT            0.417         1.008       0
    1602 TIP3 454  TIP3 OH2  OT           -0.834       15.9994       0
    1603 TIP3 454  TIP3 H1   HT            0.417         1.008       0
    1604 TIP3 454  TIP3 H2   HT            0.417         1.008       0
    1605 TIP3 455  TIP3 OH2  OT           -0.834       15.9994       0
    1606 TIP3 455  TIP3 H1   HT            0.417         1.008       0
    1607 TIP3 455  TIP3 H2   HT            0.417         1.008       0
    1608 TIP3 456  TIP3 OH2  OT           -0.834       15.9994       0
    1609 TIP3 456  TIP3 H1   HT            0.417         1.008       0
    1610 TIP3 456  TIP3 H2   HT            0.417         1.008       0
    1611 TIP3 457  TIP3 OH2  OT           -0.834       15.9994       0
    1612 TIP3 457  TIP3 H1   HT            0.417         1.008       0
    1613 TIP3 457  TIP3 H2   HT            0.417         1.008       0
    1614 TIP3 458  TIP3 OH2  OT           -0.834       15.9994       0
    1615 TIP3 458  TIP3 H1   HT            0.417         1.008       0
    1616 TIP3 458  TIP3 H2   HT            0.417         1.008       0
    1617 TIP3 459  TIP3 OH2  OT           -0.834       15.9994       0
    1618 TIP3 459  TIP3 H1   HT            0.417         1.008       0
    1619 TIP3 459  TIP3 H2   HT            0.417         1.008       0
    1620 TIP3 460  TIP3 OH2  OT           -0.834       15.9994       0
    1621 TIP3 460  TIP3 H1   HT            0.417         1.008       0
    1622 TIP3 460  TIP3 H2   HT            0.417         1.008       0
    1623 TIP3 461  TIP3 OH2  OT           -0.834       15.9994       0
    1624 TIP3 461  TIP3 H1   HT            0.417         1.008       0
    1625 TIP3 461  TIP3 H2   HT            0.417         1.008       0
    1626 TIP3 462  TIP3 OH2  OT           -0.834       15.9994       0
    1627 TIP3 462  TIP3 H1   HT            0.417         1.008       0
    1628 TIP3 462  TIP3 H2   HT            0.417         1.008       0
    1629 TIP3 463  TIP3 OH2  OT           -0.834       15.9994       0
    1630 TIP3 463  TIP3 H1   HT            0.417         1.008       0
    1631 TIP3 463  TIP3 H2   HT            0.417         1.008       0
    1632 TIP3 464  TIP3 OH2  OT           -0.834       15.9994       0
    1633 TIP3 464  TIP3 H1   HT            0.417         1.008       0
    1634 TIP3 464  TIP3 H2   HT            0.417         1.008       0
    1635 TIP3 465  TIP3 OH2  OT           -0.834       15.9994       0
    1636 TIP3 465  TIP3 H1   HT            0.417         1.008       0
    1637 TIP3 465  TIP3 H2   HT            0.417         1.008       0
    1638 TIP3 466  TIP3 OH2  OT           -0.834       15.9994       0
    1639 TIP3 466  TIP3 H1   HT            0.417         1.008       0
    1640 TIP3 466  TIP3 H2   HT            0.417         1.008       0
    1641 TIP3 467  TIP3 OH2  OT           -0.834       15.9994       0
    1642 TIP3 467  TIP3 H1   HT            0.417         1.008       0
    1643 TIP3 467  TIP3 H2   HT            0.417         1.008       0
    1644 TIP3 468  TIP3 OH2  OT           -0.834       15.9994       0
    1645 TIP3 468  TIP3 H1   HT            0.417         1.008       0
    1646 TIP3 468  TIP3 H2   HT            0.417         1.008       0
    1647 TIP3 469  TIP3 OH2  OT           -0.834       15.9994       0
    1648 TIP3 469  TIP3 H1   HT            0.417         1.008       0
    1649 TIP3 469  TIP3 H2   HT            0.417         1.008       0
    1650 TIP3 470  TIP3 OH2  OT           -0.834       15.9994       0
    1651 TIP3 470  TIP3 H1   HT            0.417         1.008       0
    1652 TIP3 470  TIP3 H2   HT            0.417         1.008       0
    1653 TIP3 471  TIP3 OH2  OT           -0.834       15.9994       0
    1654 TIP3 471  TIP3 H1   HT            0.417         1.008       0
    1655 TIP3 471  TIP3 H2   HT            0.417         1.008       0
    1656 TIP3 472  TIP3 OH2  OT           -0.834       15.9994       0
    1657 TIP3 472  TIP3 H1   HT            0.417         1.008       0
    1658 TIP3 472  TIP3 H2   HT            0.417         1.008       0
    1659 TIP3 473  TIP3 OH2  OT           -0.834       15.9994       0
    1660 TIP3 473  TIP3 H1   HT            0.417         1.008       0
    1661 TIP3 473  TIP3 H2   HT            0.417         1.008       0
    1662 TIP3 474  TIP3 OH2  OT           -0.834       15.9994       0
    1663 TIP3 474  TIP3 H1   HT            0.417         1.008       0
    1664 TIP3 474  TIP3 H2   HT            0.417         1.008       0
    1665 TIP3 475  TIP3 OH2  OT           -0.834       15.9994       0
    1666 TIP3 475  TIP3 H1   HT            0.417         1.008       0
    1667 TIP3 475  TIP3 H2   HT            0.417         1.008       0
    1668 TIP3 476  TIP3 OH2  OT           -0.834       15.9994       0
    1669 TIP3 476  TIP3 H1   HT            0.417         1.008       0
    1670 TIP3 476  TIP3 H2   HT            0.417         1.008       0
    1671 TIP3 477  TIP3 OH2  OT           -0.834       15.9994       0
    1672 TIP3 477  TIP3 H1   HT            0.417         1.008       0
    1673 TIP3 477  TIP3 H2   HT            0.417         1.008       0
    1674 TIP3 478  TIP3 OH2  OT           -0.834       15.9994       0
    1675 TIP3 478  TIP3 H1   HT            0.417         1.008       0
    1676 TIP3 478  TIP3 H2   HT            0.417         1.008       0
    1677 TIP3 479  TIP3 OH2  OT           -0.834       15.9994       0
    1678 TIP3 479  TIP3 H1   HT            0.417         1.008       0
    1679 TIP3 479  TIP3 H2   HT            0.417         1.008       0
    1680 TIP3 480  TIP3 OH2  OT           -0.834       15.9994       0
    1681 TIP3 480  TIP3 H1   HT            0.417         1.008       0
    1682 TIP3 480  TIP3 H2   HT            0.417         1.008       0
    1683 TIP3 481  TIP3 OH2  OT           -0.834       15.9994       0
    1684 TIP3 481  TIP3 H1   HT            0.417         1.008       0
    1685 TIP3 481  TIP3 H2   HT            0.417         1.008       0
    1686 TIP3 482  TIP3 OH2  OT           -0.834       15.9994       0
    1687 TIP3 482  TIP3 H1   HT            0.417         1.008       0
    1688 TIP3 482  TIP3 H2   HT            0.417         1.008       0
    1689 TIP3 483  TIP3 OH2  OT           -0.834       15.9994       0
    1690 TIP3 483  TIP3 H1   HT            0.417         1.008       0
    1691 TIP3 483  TIP3 H2   HT            0.417         1.008       0
    1692 TIP3 484  TIP3 OH2  OT           -0.834       15.9994       0
    1693 TIP3 484  TIP3 H1   HT            0.417         1.008       0
    1694 TIP3 484  TIP3 H2   HT            0.417         1.008       0
    1695 TIP3 485  TIP3 OH2  OT           -0.834       15.9994       0
    1696 TIP3 485  TIP3 H1   HT            0.417         1.008       0
    1697 TIP3 485  TIP3 H2   HT            0.417         1.008       0
    1698 TIP3 486  TIP3 OH2  OT           -0.834       15.9994       0
    1699 TIP3 486  TIP3 H1   HT            0.417         1.008       0
    1700 TIP3 486  TIP3 H2   HT            0.417         1.008       0
    1701 TIP3 487  TIP3 OH2  OT           -0.834       15.9994       0
    1702 TIP3 487  TIP3 H1   HT            0.417         1.008       0
    1703 TIP3 487  TIP3 H2   HT            0.417         1.008       0
    1704 TIP3 488  TIP3 OH2  OT           -0.834       15.9994       0
    1705 TIP3 488  TIP3 H1   HT            0.417         1.008       0
    1706 TIP3 488  TIP3 H2   HT            0.417         1.008       0
    1707 TIP3 489  TIP3 OH2  OT           -0.834       15.9994       0
    1708 TIP3 489  TIP3 H1   HT            0.417         1.008       0
    1709 TIP3 489  TIP3 H2   HT            0.417         1.008       0
    1710 TIP3 490  TIP3 OH2  OT           -0.834       15.9994       0
    1711 TIP3 490  TIP3 H1   HT            0.417         1.008       0
    1712 TIP3 490  TIP3 H2   HT            0.417         1.008       0
    1713 TIP3 491  TIP3 OH2  OT           -0.834       15.9994       0
    1714 TIP3 491  TIP3 H1   HT            0.417         1.008       0
    1715 TIP3 491  TIP3 H2   HT            0.417         1.008       0
    1716 TIP3 492  TIP3 OH2  OT           -0.834       15.9994       0
    1717 TIP3 492  TIP3 H1   HT            0.417         1.008       0
    1718 TIP3 492  TIP3 H2   HT            0.417         1.008       0
    1719 TIP3 493  TIP3 OH2  OT           -0.834       15.9994       0
    1720 TIP3 493  TIP3 H1   HT            0.417         1.008       0
    1721 TIP3 493  TIP3 H2   HT            0.417         1.008       0
    1722 TIP3 494  TIP3 OH2  OT           -0.834       15.9994       0
    1723 TIP3 494  TIP3 H1   HT            0.417         1.008       0
    1724 TIP3 494  TIP3 H2   HT            0.417         1.008       0
    1725 TIP3 495  TIP3 OH2  OT           -0.834       15.9994       0
    1726 TIP3 495  TIP3 H1   HT            0.417         1.008       0
    1727 TIP3 495  TIP3 H2   HT            0.417         1.008       0
    1728 TIP3 496  TIP3 OH2  OT           -0.834       15.9994       0
    1729 TIP3 496  TIP3 H1   HT            0.417         1.008       0
    1730 TIP3 496  TIP3 H2   HT            0.417         1.008       0
    1731 TIP3 497  TIP3 OH2  OT           -0.834       15.9994       0
    1732 TIP3 497  TIP3 H1   HT            0.417         1.008       0
    1733 TIP3 497  TIP3 H2   HT            0.417         1.008       0
    1734 TIP3 498  TIP3 OH2  OT           -0.834       15.9994       0
    1735 TIP3 498  TIP3 H1   HT            0.417         1.008       0
    1736 TIP3 498  TIP3 H2   HT            0.417         1.008       0
    1737 TIP3 499  TIP3 OH2  OT           -0.834       15.9994       0
    1738 TIP3 499  TIP3 H1   HT            0.417         1.008       0
    1739 TIP3 499  TIP3 H2   HT            0.417         1.008       0
    1740 TIP3 500  TIP3 OH2  OT           -0.834       15.9994       0
    1741 TIP3 500  TIP3 H1   HT            0.417         1.008       0
    1742 TIP3 500  TIP3 H2   HT            0.417         1.008       0
    1743 TIP3 501  TIP3 OH2  OT           -0.834       15.9994       0
    1744 TIP3 501  TIP3 H1   HT            0.417         1.008       0
    1745 TIP3 501  TIP3 H2   HT            0.417         1.008       0
    1746 TIP3 502  TIP3 OH2  OT           -0.834       15.9994       0
    1747 TIP3 502  TIP3 H1   HT            0.417         1.008       0
    1748 TIP3 502  TIP3 H2   HT            0.417         1.008       0
    1749 TIP3 503  TIP3 OH2  OT           -0.834       15.9994       0
    1750 TIP3 503  TIP3 H1   HT            0.417         1.008       0
    1751 TIP3 503  TIP3 H2   HT            0.417         1.008       0
    1752 TIP3 504  TIP3 OH2  OT           -0.834       15.9994       0
    1753 TIP3 504  TIP3 H1   HT            0.417         1.008       0
    1754 TIP3 504  TIP3 H2   HT            0.417         1.008       0
    1755 TIP3 505  TIP3 OH2  OT           -0.834       15.9994       0
    1756 TIP3 505  TIP3 H1   HT            0.417         1.008       0
    1757 TIP3 505  TIP3 H2   HT            0.417         1.008       0
    1758 TIP3 506  TIP3 OH2  OT           -0.834       15.9994       0
    1759 TIP3 506  TIP3 H1   HT            0.417         1.008       0
    1760 TIP3 506  TIP3 H2   HT            0.417         1.008       0
    1761 TIP3 507  TIP3 OH2  OT           -0.834       15.9994       0
    1762 TIP3 507  TIP3 H1   HT            0.417         1.008       0
    1763 TIP3 507  TIP3 H2   HT            0.417         1.008       0
    1764 TIP3 508  TIP3 OH2  OT           -0.834       15.9994       0
    1765 TIP3 508  TIP3 H1   HT            0.417         1.008       0
    1766 TIP3 508  TIP3 H2   HT            0.417         1.008       0
    1767 TIP3 509  TIP3 OH2  OT           -0.834       15.9994       0
    1768 TIP3 509  TIP3 H1   HT            0.417         1.008       0
    1769 TIP3 509  TIP3 H2   HT            0.417         1.008       0
    1770 TIP3 510  TIP3 OH2  OT           -0.834       15.9994       0
    1771 TIP3 510  TIP3 H1   HT            0.417         1.008       0
    1772 TIP3 510  TIP3 H2   HT            0.417         1.008       0
    1773 TIP3 511  TIP3 OH2  OT           -0.834       15.9994       0
    1774 TIP3 511  TIP3 H1   HT            0.417         1.008       0
    1775 TIP3 511  TIP3 H2   HT            0.417         1.008       0
    1776 TIP3 512  TIP3 OH2  OT           -0.834       15.9994       0
    1777 TIP3 512  TIP3 H1   HT            0.417         1.008       0
    1778 TIP3 512  TIP3 H2   HT            0.417         1.008       0
    1779 TIP3 513  TIP3 OH2  OT           -0.834       15.9994       0
    1780 TIP3 513  TIP3 H1   HT            0.417         1.008       0
    1781 TIP3 513  TIP3 H2   HT            0.417         1.008       0
    1782 TIP3 514  TIP3 OH2  OT           -0.834       15.9994       0
    1783 TIP3 514  TIP3 H1   HT            0.417         1.008       0
    1784 TIP3 514  TIP3 H2   HT            0.417         1.008       0
    1785 TIP3 515  TIP3 OH2  OT           -0.834       15.9994       0
    1786 TIP3 515  TIP3 H1   HT            0.417         1.008       0
    1787 TIP3 515  TIP3 H2   HT            0.417         1.008       0
    1788 TIP3 516  TIP3 OH2  OT           -0.834       15.9994       0
    1789 TIP3 516  TIP3 H1   HT            0.417         1.008       0
    1790 TIP3 516  TIP3 H2   HT            0.417         1.008       0
    1791 TIP3 517  TIP3 OH2  OT           -0.834       15.9994       0
    1792 TIP3 517  TIP3 H1   HT            0.417         1.008       0
    1793 TIP3 517  TIP3 H2   HT            0.417         1.008       0
    1794 TIP3 518  TIP3 OH2  OT           -0.834       15.9994       0
    1795 TIP3 518  TIP3 H1   HT            0.417         1.008       0
    1796 TIP3 518  TIP3 H2   HT            0.417         1.008       0
    1797 TIP3 519  TIP3 OH2  OT           -0.834       15.9994       0
    1798 TIP3 519  TIP3 H1   HT            0.417         1.008       0
    1799 TIP3 519  TIP3 H2   HT            0.417         1.008       0
    1800 TIP3 520  TIP3 OH2  OT           -0.834       15.9994       0
    1801 TIP3 520  TIP3 H1   HT            0.417         1.008       0
    1802 TIP3 520  TIP3 H2   HT            0.417         1.008       0
    1803 TIP3 521  TIP3 OH2  OT           -0.834       15.9994       0
    1804 TIP3 521  TIP3 H1   HT            0.417         1.008       0
    1805 TIP3 521  TIP3 H2   HT            0.417         1.008       0
    1806 TIP3 522  TIP3 OH2  OT           -0.834       15.9994       0
    1807 TIP3 522  TIP3 H1   HT            0.417         1.008       0
    1808 TIP3 522  TIP3 H2   HT            0.417         1.008       0
    1809 TIP3 523  TIP3 OH2  OT           -0.834       15.9994       0
    1810 TIP3 523  TIP3 H1   HT            0.417         1.008       0
    1811 TIP3 523  TIP3 H2   HT            0.417         1.008       0
    1812 TIP3 524  TIP3 OH2  OT           -0.834       15.9994       0
    1813 TIP3 524  TIP3 H1   HT            0.417         1.008       0
    1814 TIP3 524  TIP3 H2   HT            0.417         1.008       0
    1815 TIP3 525  TIP3 OH2  OT           -0.834       15.9994       0
    1816 TIP3 525  TIP3 H1   HT            0.417         1.008       0
    1817 TIP3 525  TIP3 H2   HT            0.417         1.008       0
    1818 TIP3 526  TIP3 OH2  OT           -0.834       15.9994       0
    1819 TIP3 526  TIP3 H1   HT            0.417         1.008       0
    1820 TIP3 526  TIP3 H2   HT            0.417         1.008       0
    1821 TIP3 527  TIP3 OH2  OT           -0.834       15.9994       0
    1822 TIP3 527  TIP3 H1   HT            0.417         1.008       0
    1823 TIP3 527  TIP3 H2   HT            0.417         1.008       0
    1824 TIP3 528  TIP3 OH2  OT           -0.834       15.9994       0
    1825 TIP3 528  TIP3 H1   HT            0.417         1.008       0
    1826 TIP3 528  TIP3 H2   HT            0.417         1.008       0
    1827 TIP3 529  TIP3 OH2  OT           -0.834       15.9994       0
    1828 TIP3 529  TIP3 H1   HT            0.417         1.008       0
    1829 TIP3 529  TIP3 H2   HT            0.417         1.008       0
    1830 TIP3 530  TIP3 OH2  OT           -0.834       15.9994       0
    1831 TIP3 530  TIP3 H1   HT            0.417         1.008       0
    1832 TIP3 530  TIP3 H2   HT            0.417         1.008       0
    1833 TIP3 531  TIP3 OH2  OT           -0.834       15.9994       0
    1834 TIP3 531  TIP3 H1   HT            0.417         1.008       0
    1835 TIP3 531  TIP3 H2   HT            0.417         1.008       0
    1836 TIP3 532  TIP3 OH2  OT           -0.834       15.9994       0
    1837 TIP3 532  TIP3 H1   HT            0.417         1.008       0
    1838 TIP3 532  TIP3 H2   HT            0.417         1.008       0
    1839 TIP3 533  TIP3 OH2  OT           -0.834       15.9994       0
    1840 TIP3 533  TIP3 H1   HT            0.417         1.008       0
    1841 TIP3 533  TIP3 H2   HT            0.417         1.008       0
    1842 TIP3 534  TIP3 OH2  OT           -0.834       15.9994       0
    1843 TIP3 534  TIP3 H1   HT            0.417         1.008       0
    1844 TIP3 534  TIP3 H2   HT            0.417         1.008       0
    1845 TIP3 535  TIP3 OH2  OT           -0.834       15.9994       0
    1846 TIP3 535  TIP3 H1   HT            0.417         1.008       0
    1847 TIP3 535  TIP3 H2   HT            0.417         1.008       0
    1848 TIP3 536  TIP3 OH2  OT           -0.834       15.9994       0
    1849 TIP3 536  TIP3 H1   HT            0.417         1.008       0
    1850 TIP3 536  TIP3 H2   HT            0.417         1.008       0
    1851 TIP3 537  TIP3 OH2  OT           -0.834       15.9994       0
    1852 TIP3 537  TIP3 H1   HT            0.417         1.008       0
    1853 TIP3 537  TIP3 H2   HT            0.417         1.008       0
    1854 TIP3 538  TIP3 OH2  OT           -0.834       15.9994       0
    1855 TIP3 538  TIP3 H1   HT            0.417         1.008       0
    1856 TIP3 538  TIP3 H2   HT            0.417         1.008       0
    1857 TIP3 539  TIP3 OH2  OT           -0.834       15.9994       0
    1858 TIP3 539  TIP3 H1   HT            0.417         1.008       0
    1859 TIP3 539  TIP3 H2   HT            0.417         1.008       0
    1860 TIP3 540  TIP3 OH2  OT           -0.834       15.9994       0
    1861 TIP3 540  TIP3 H1   HT            0.417         1.008       0
    1862 TIP3 540  TIP3 H2   HT            0.417         1.008       0
    1863 TIP3 541  TIP3 OH2  OT           -0.834       15.9994       0
    1864 TIP3 541  TIP3 H1   HT            0.417         1.008       0
    1865 TIP3 541  TIP3 H2   HT            0.417         1.008       0
    1866 TIP3 542  TIP3 OH2  OT           -0.834       15.9994       0
    1867 TIP3 542  TIP3 H1   HT            0.417         1.008       0
    1868 TIP3 542  TIP3 H2   HT            0.417         1.008       0
    1869 TIP3 543  TIP3 OH2  OT           -0.834       15.9994       0
    1870 TIP3 543  TIP3 H1   HT            0.417         1.008       0
    1871 TIP3 543  TIP3 H2   HT            0.417         1.008       0
    1872 TIP3 544  TIP3 OH2  OT           -0.834       15.9994       0
    1873 TIP3 544  TIP3 H1   HT            0.417         1.008       0
    1874 TIP3 544  TIP3 H2   HT            0.417         1.008       0
    1875 TIP3 545  TIP3 OH2  OT           -0.834       15.9994       0
    1876 TIP3 545  TIP3 H1   HT            0.417         1.008       0
    1877 TIP3 545  TIP3 H2   HT            0.417         1.008       0
    1878 TIP3 546  TIP3 OH2  OT           -0.834       15.9994       0
    1879 TIP3 546  TIP3 H1   HT            0.417         1.008       0
    1880 TIP3 546  TIP3 H2   HT            0.417         1.008       0
    1881 TIP3 547  TIP3 OH2  OT           -0.834       15.9994       0
    1882 TIP3 547  TIP3 H1   HT            0.417         1.008       0
    1883 TIP3 547  TIP3 H2   HT            0.417         1.008       0
    1884 TIP3 548  TIP3 OH2  OT           -0.834       15.9994       0
    1885 TIP3 548  TIP3 H1   HT            0.417         1.008       0
    1886 TIP3 548  TIP3 H2   HT            0.417         1.008       0
    1887 TIP3 549  TIP3 OH2  OT           -0.834       15.9994       0
    1888 TIP3 549  TIP3 H1   HT            0.417         1.008       0
    1889 TIP3 549  TIP3 H2   HT            0.417         1.008       0
    1890 TIP3 550  TIP3 OH2  OT           -0.834       15.9994       0
    1891 TIP3 550  TIP3 H1   HT            0.417         1.008       0
    1892 TIP3 550  TIP3 H2   HT            0.417         1.008       0
    1893 TIP3 551  TIP3 OH2  OT           -0.834       15.9994       0
    1894 TIP3 551  TIP3 H1   HT            0.417         1.008       0
    1895 TIP3 551  TIP3 H2   HT            0.417         1.008       0
    1896 TIP3 552  TIP3 OH2  OT           -0.834       15.9994       0
    1897 TIP3 552  TIP3 H1   HT            0.417         1.008       0
    1898 TIP3 552  TIP3 H2   HT            0.417         1.008       0
    1899 TIP3 553  TIP3 OH2  OT           -0.834       15.9994       0
    1900 TIP3 553  TIP3 H1   HT            0.417         1.008       0
    1901 TIP3 553  TIP3 H2   HT            0.417         1.008       0
    1902 TIP3 554  TIP3 OH2  OT           -0.834       15.9994       0
    1903 TIP3 554  TIP3 H1   HT            0.417         1.008       0
    1904 TIP3 554  TIP3 H2   HT            0.417         1.008       0
    1905 TIP3 555  TIP3 OH2  OT           -0.834       15.9994       0
    1906 TIP3 555  TIP3 H1   HT            0.417         1.008       0
    1907 TIP3 555  TIP3 H2   HT            0.417         1.008       0
    1908 TIP3 556  TIP3 OH2  OT           -0.834       15.9994       0
    1909 TIP3 556  TIP3 H1   HT            0.417         1.008       0
    1910 TIP3 556  TIP3 H2   HT            0.417         1.008       0
    1911 TIP3 557  TIP3 OH2  OT           -0.834       15.9994       0
    1912 TIP3 557  TIP3 H1   HT            0.417         1.008       0
    1913 TIP3 557  TIP3 H2   HT            0.417         1.008       0
    1914 TIP3 558  TIP3 OH2  OT           -0.834       15.9994       0
    1915 TIP3 558  TIP3 H1   HT            0.417         1.008       0
    1916 TIP3 558  TIP3 H2   HT            0.417         1.008       0
    1917 TIP3 559  TIP3 OH2  OT           -0.834       15.9994       0
    1918 TIP3 559  TIP3 H1   HT            0.417         1.008       0
    1919 TIP3 559  TIP3 H2   HT            0.417         1.008       0
    1920 TIP3 560  TIP3 OH2  OT           -0.834       15.9994       0
    1921 TIP3 560  TIP3 H1   HT            0.417         1.008       0
    1922 TIP3 560  TIP3 H2   HT            0.417         1.008       0
    1923 TIP3 561  TIP3 OH2  OT           -0.834       15.9994       0
    1924 TIP3 561  TIP3 H1   HT            0.417         1.008       0
    1925 TIP3 561  TIP3 H2   HT            0.417         1.008       0
    1926 TIP3 562  TIP3 OH2  OT           -0.834       15.9994       0
    1927 TIP3 562  TIP3 H1   HT            0.417         1.008       0
    1928 TIP3 562  TIP3 H2   HT            0.417         1.008       0
    1929 TIP3 563  TIP3 OH2  OT           -0.834       15.9994       0
    1930 TIP3 563  TIP3 H1   HT            0.417         1.008       0
    1931 TIP3 563  TIP3 H2   HT            0.417         1.008       0
    1932 TIP3 564  TIP3 OH2  OT           -0.834       15.9994       0
    1933 TIP3 564  TIP3 H1   HT            0.417         1.008       0
    1934 TIP3 564  TIP3 H2   HT            0.417         1.008       0
    1935 TIP3 565  TIP3 OH2  OT           -0.834       15.9994       0
    1936 TIP3 565  TIP3 H1   HT            0.417         1.008       0
    1937 TIP3 565  TIP3 H2   HT            0.417         1.008       0
    1938 TIP3 566  TIP3 OH2  OT           -0.834       15.9994       0
    1939 TIP3 566  TIP3 H1   HT            0.417         1.008       0
    1940 TIP3 566  TIP3 H2   HT            0.417         1.008       0
    1941 TIP3 567  TIP3 OH2  OT           -0.834       15.9994       0
    1942 TIP3 567  TIP3 H1   HT            0.417         1.008       0
    1943 TIP3 567  TIP3 H2   HT            0.417         1.008       0
    1944 TIP3 568  TIP3 OH2  OT           -0.834       15.9994       0
    1945 TIP3 568  TIP3 H1   HT            0.417         1.008       0
    1946 TIP3 568  TIP3 H2   HT            0.417         1.008       0
    1947 TIP3 569  TIP3 OH2  OT           -0.834       15.9994       0
    1948 TIP3 569  TIP3 H1   HT            0.417         1.008       0
    1949 TIP3 569  TIP3 H2   HT            0.417         1.008       0
    1950 TIP3 570  TIP3 OH2  OT           -0.834       15.9994       0
    1951 TIP3 570  TIP3 H1   HT            0.417         1.008       0
    1952 TIP3 570  TIP3 H2   HT            0.417         1.008       0
    1953 TIP3 571  TIP3 OH2  OT           -0.834       15.9994       0
    1954 TIP3 571  TIP3 H1   HT            0.417         1.008       0
    1955 TIP3 571  TIP3 H2   HT            0.417         1.008       0
    1956 TIP3 572  TIP3 OH2  OT           -0.834       15.9994       0
    1957 TIP3 572  TIP3 H1   HT            0.417         1.008       0
    1958 TIP3 572  TIP3 H2   HT            0.417         1.008       0
    1959 TIP3 573  TIP3 OH2  OT           -0.834       15.9994       0
    1960 TIP3 573  TIP3 H1   HT            0.417         1.008       0
    1961 TIP3 573  TIP3 H2   HT            0.417         1.008       0
    1962 TIP3 574  TIP3 OH2  OT           -0.834       15.9994       0
    1963 TIP3 574  TIP3 H1   HT            0.417         1.008       0
    1964 TIP3 574  TIP3 H2   HT            0.417         1.008       0
    1965 TIP3 575  TIP3 OH2  OT           -0.834       15.9994       0
    1966 TIP3 575  TIP3 H1   HT            0.417         1.008       0
    1967 TIP3 575  TIP3 H2   HT            0.417         1.008       0
    1968 TIP3 576  TIP3 OH2  OT           -0.834       15.9994       0
    1969 TIP3 576  TIP3 H1   HT            0.417         1.008       0
    1970 TIP3 576  TIP3 H2   HT            0.417         1.008       0
    1971 TIP3 577  TIP3 OH2  OT           -0.834       15.9994       0
    1972 TIP3 577  TIP3 H1   HT            0.417         1.008       0
    1973 TIP3 577  TIP3 H2   HT            0.417         1.008       0
    1974 TIP3 578  TIP3 OH2  OT           -0.834       15.9994       0
    1975 TIP3 578  TIP3 H1   HT            0.417         1.008       0
    1976 TIP3 578  TIP3 H2   HT            0.417         1.008       0
    1977 TIP3 579  TIP3 OH2  OT           -0.834       15.9994       0
    1978 TIP3 579  TIP3 H1   HT            0.417         1.008       0
    1979 TIP3 579  TIP3 H2   HT            0.417         1.008       0
    1980 TIP3 580  TIP3 OH2  OT           -0.834       15.9994       0
    1981 TIP3 580  TIP3 H1   HT            0.417         1.008       0
    1982 TIP3 580  TIP3 H2   HT            0.417         1.008       0
    1983 TIP3 581  TIP3 OH2  OT           -0.834       15.9994       0
    1984 TIP3 581  TIP3 H1   HT            0.417         1.008       0
    1985 TIP3 581  TIP3 H2   HT            0.417         1.008       0
    1986 TIP3 582  TIP3 OH2  OT           -0.834       15.9994       0
    1987 TIP3 582  TIP3 H1   HT            0.417         1.008       0
    1988 TIP3 582  TIP3 H2   HT            0.417         1.008       0
    1989 TIP3 583  TIP3 OH2  OT           -0.834       15.9994       0
    1990 TIP3 583  TIP3 H1   HT            0.417         1.008       0
    1991 TIP3 583  TIP3 H2   HT            0.417         1.008       0
    1992 TIP3 584  TIP3 OH2  OT           -0.834       15.9994       0
    1993 TIP3 584  TIP3 H1   HT            0.417         1.008       0
    1994 TIP3 584  TIP3 H2   HT            0.417         1.008       0
    1995 TIP3 585  TIP3 OH2  OT           -0.834       15.9994       0
    1996 TIP3 585  TIP3 H1   HT            0.417         1.008       0
    1997 TIP3 585  TIP3 H2   HT            0.417         1.008       0
    1998 TIP3 586  TIP3 OH2  OT           -0.834       15.9994       0
    1999 TIP3 586  TIP3 H1   HT            0.417         1.008       0
    2000 TIP3 586  TIP3 H2   HT            0.417         1.008       0
    2001 TIP3 587  TIP3 OH2  OT           -0.834       15.9994       0
    2002 TIP3 587  TIP3 H1   HT            0.417         1.008       0
    2003 TIP3 587  TIP3 H2   HT            0.417         1.008       0
    2004 TIP3 588  TIP3 OH2  OT           -0.834       15.9994       0
    2005 TIP3 588  TIP3 H1   HT            0.417         1.008       0
    2006 TIP3 588  TIP3 H2   HT            0.417         1.008       0
    2007 TIP3 589  TIP3 OH2  OT           -0.834       15.9994       0
    2008 TIP3 589  TIP3 H1   HT            0.417         1.008       0
    2009 TIP3 589  TIP3 H2   HT            0.417         1.008       0
    2010 TIP3 590  TIP3 OH2  OT           -0.834       15.9994       0
    2011 TIP3 590  TIP3 H1   HT            0.417         1.008       0
    2012 TIP3 590  TIP3 H2   HT            0.417         1.008       0
    2013 TIP3 591  TIP3 OH2  OT           -0.834       15.9994       0
    2014 TIP3 591  TIP3 H1   HT            0.417         1.008       0
    2015 TIP3 591  TIP3 H2   HT            0.417         1.008       0
    2016 TIP3 592  TIP3 OH2  OT           -0.834       15.9994       0
    2017 TIP3 592  TIP3 H1   HT            0.417         1.008       0
    2018 TIP3 592  TIP3 H2   HT            0.417         1.008       0
    2019 TIP3 593  TIP3 OH2  OT           -0.834       15.9994       0
    2020 TIP3 593  TIP3 H1   HT            0.417         1.008       0
    2021 TIP3 593  TIP3 H2   HT            0.417         1.008       0
    2022 TIP3 594  TIP3 OH2  OT           -0.834       15.9994       0
    2023 TIP3 594  TIP3 H1   HT            0.417         1.008       0
    2024 TIP3 594  TIP3 H2   HT            0.417         1.008       0
    2025 TIP3 595  TIP3 OH2  OT           -0.834       15.9994       0
    2026 TIP3 595  TIP3 H1   HT            0.417         1.008       0
    2027 TIP3 595  TIP3 H2   HT            0.417         1.008       0
    2028 TIP3 596  TIP3 OH2  OT           -0.834       15.9994       0
    2029 TIP3 596  TIP3 H1   HT            0.417         1.008       0
    2030 TIP3 596  TIP3 H2   HT            0.417         1.008       0
    2031 TIP3 597  TIP3 OH2  OT           -0.834       15.9994       0
    2032 TIP3 597  TIP3 H1   HT            0.417         1.008       0
    2033 TIP3 597  TIP3 H2   HT            0.417         1.008       0
    2034 TIP3 598  TIP3 OH2  OT           -0.834       15.9994       0
    2035 TIP3 598  TIP3 H1   HT            0.417         1.008       0
    2036 TIP3 598  TIP3 H2   HT            0.417         1.008       0
    2037 TIP3 599  TIP3 OH2  OT           -0.834       15.9994       0
    2038 TIP3 599  TIP3 H1   HT            0.417         1.008       0
    2039 TIP3 599  TIP3 H2   HT            0.417         1.008       0
    2040 TIP3 600  TIP3 OH2  OT           -0.834       15.9994       0
    2041 TIP3 600  TIP3 H1   HT            0.417         1.008       0
    2042 TIP3 600  TIP3 H2   HT            0.417         1.008       0
    2043 TIP3 601  TIP3 OH2  OT           -0.834       15.9994       0
    2044 TIP3 601  TIP3 H1   HT            0.417         1.008       0
    2045 TIP3 601  TIP3 H2   HT            0.417         1.008       0
    2046 TIP3 602  TIP3 OH2  OT           -0.834       15.9994       0
    2047 TIP3 602  TIP3 H1   HT            0.417         1.008       0
    2048 TIP3 602  TIP3 H2   HT            0.417         1.008       0
    2049 TIP3 603  TIP3 OH2  OT           -0.834       15.9994       0
    2050 TIP3 603  TIP3 H1   HT            0.417         1.008       0
    2051 TIP3 603  TIP3 H2   HT            0.417         1.008       0
    2052 TIP3 604  TIP3 OH2  OT           -0.834       15.9994       0
    2053 TIP3 604  TIP3 H1   HT            0.417         1.008       0
    2054 TIP3 604  TIP3 H2   HT            0.417         1.008       0
    2055 TIP3 605  TIP3 OH2  OT           -0.834       15.9994       0
    2056 TIP3 605  TIP3 H1   HT            0.417         1.008       0
    2057 TIP3 605  TIP3 H2   HT            0.417         1.008       0
    2058 TIP3 606  TIP3 OH2  OT           -0.834       15.9994       0
    2059 TIP3 606  TIP3 H1   HT            0.417         1.008       0
    2060 TIP3 606  TIP3 H2   HT            0.417         1.008       0
    2061 TIP3 607  TIP3 OH2  OT           -0.834       15.9994       0
    2062 TIP3 607  TIP3 H1   HT            0.417         1.008       0
    2063 TIP3 607  TIP3 H2   HT            0.417         1.008       0
    2064 TIP3 608  TIP3 OH2  OT           -0.834       15.9994       0
    2065 TIP3 608  TIP3 H1   HT            0.417         1.008       0
    2066 TIP3 608  TIP3 H2   HT            0.417         1.008       0
    2067 TIP3 609  TIP3 OH2  OT           -0.834       15.9994       0
    2068 TIP3 609  TIP3 H1   HT            0.417         1.008       0
    2069 TIP3 609  TIP3 H2   HT            0.417         1.008       0
    2070 TIP3 610  TIP3 OH2  OT           -0.834       15.9994       0
    2071 TIP3 610  TIP3 H1   HT            0.417         1.008       0
    2072 TIP3 610  TIP3 H2   HT            0.417         1.008       0
    2073 TIP3 611  TIP3 OH2  OT           -0.834       15.9994       0
    2074 TIP3 611  TIP3 H1   HT            0.417         1.008       0
    2075 TIP3 611  TIP3 H2   HT            0.417         1.008       0
    2076 TIP3 612  TIP3 OH2  OT           -0.834       15.9994       0
    2077 TIP3 612  TIP3 H1   HT            0.417         1.008       0
    2078 TIP3 612  TIP3 H2   HT            0.417         1.008       0
    2079 TIP3 613  TIP3 OH2  OT           -0.834       15.9994       0
    2080 TIP3 613  TIP3 H1   HT            0.417         1.008       0
    2081 TIP3 613  TIP3 H2   HT            0.417         1.008       0
    2082 TIP3 614  TIP3 OH2  OT           -0.834       15.9994       0
    2083 TIP3 614  TIP3 H1   HT            0.417         1.008       0
    2084 TIP3 614  TIP3 H2   HT            0.417         1.008       0
    2085 TIP3 615  TIP3 OH2  OT           -0.834       15.9994       0
    2086 TIP3 615  TIP3 H1   HT            0.417         1.008       0
    2087 TIP3 615  TIP3 H2   HT            0.417         1.008       0
    2088 TIP3 616  TIP3 OH2  OT           -0.834       15.9994       0
    2089 TIP3 616  TIP3 H1   HT            0.417         1.008       0
    2090 TIP3 616  TIP3 H2   HT            0.417         1.008       0
    2091 TIP3 617  TIP3 OH2  OT           -0.834       15.9994       0
    2092 TIP3 617  TIP3 H1   HT            0.417         1.008       0
    2093 TIP3 617  TIP3 H2   HT            0.417         1.008       0
    2094 TIP3 618  TIP3 OH2  OT           -0.834       15.9994       0
    2095 TIP3 618  TIP3 H1   HT            0.417         1.008       0
    2096 TIP3 618  TIP3 H2   HT            0.417         1.008       0
    2097 TIP3 619  TIP3 OH2  OT           -0.834       15.9994       0
    2098 TIP3 619  TIP3 H1   HT            0.417         1.008       0
    2099 TIP3 619  TIP3 H2   HT            0.417         1.008       0
    2100 TIP3 620  TIP3 OH2  OT           -0.834       15.9994       0
    2101 TIP3 620  TIP3 H1   HT            0.417         1.008       0
    2102 TIP3 620  TIP3 H2   HT            0.417         1.008       0
    2103 TIP3 621  TIP3 OH2  OT           -0.834       15.9994       0
    2104 TIP3 621  TIP3 H1   HT            0.417         1.008       0
    2105 TIP3 621  TIP3 H2   HT            0.417         1.008       0
    2106 TIP3 622  TIP3 OH2  OT           -0.834       15.9994       0
    2107 TIP3 622  TIP3 H1   HT            0.417         1.008       0
    2108 TIP3 622  TIP3 H2   HT            0.417         1.008       0
    2109 TIP3 623  TIP3 OH2  OT           -0.834       15.9994       0
    2110 TIP3 623  TIP3 H1   HT            0.417         1.008       0
    2111 TIP3 623  TIP3 H2   HT            0.417         1.008       0
    2112 TIP3 624  TIP3 OH2  OT           -0.834       15.9994       0
    2113 TIP3 624  TIP3 H1   HT            0.417         1.008       0
    2114 TIP3 624  TIP3 H2   HT            0.417         1.008       0
    2115 TIP3 625  TIP3 OH2  OT           -0.834       15.9994       0
    2116 TIP3 625  TIP3 H1   HT            0.417         1.008       0
    2117 TIP3 625  TIP3 H2   HT            0.417         1.008       0
    2118 TIP3 626  TIP3 OH2  OT           -0.834       15.9994       0
    2119 TIP3 626  TIP3 H1   HT            0.417         1.008       0
    2120 TIP3 626  TIP3 H2   HT            0.417         1.008       0
    2121 TIP3 627  TIP3 OH2  OT           -0.834       15.9994       0
    2122 TIP3 627  TIP3 H1   HT            0.417         1.008       0
    2123 TIP3 627  TIP3 H2   HT            0.417         1.008       0
    2124 TIP3 628  TIP3 OH2  OT           -0.834       15.9994       0
    2125 TIP3 628  TIP3 H1   HT            0.417         1.008       0
    2126 TIP3 628  TIP3 H2   HT            0.417         1.008       0
    2127 TIP3 629  TIP3 OH2  OT           -0.834       15.9994       0
    2128 TIP3 629  TIP3 H1   HT            0.417         1.008       0
    2129 TIP3 629  TIP3 H2   HT            0.417         1.008       0
    2130 TIP3 630  TIP3 OH2  OT           -0.834       15.9994       0
    2131 TIP3 630  TIP3 H1   HT            0.417         1.008       0
    2132 TIP3 630  TIP3 H2   HT            0.417         1.008       0
    2133 TIP3 631  TIP3 OH2  OT           -0.834       15.9994       0
    2134 TIP3 631  TIP3 H1   HT            0.417         1.008       0
    2135 TIP3 631  TIP3 H2   HT            0.417         1.008       0
    2136 TIP3 632  TIP3 OH2  OT           -0.834       15.9994       0
    2137 TIP3 632  TIP3 H1   HT            0.417         1.008       0
    2138 TIP3 632  TIP3 H2   HT            0.417         1.008       0
    2139 TIP3 633  TIP3 OH2  OT           -0.834       15.9994       0
    2140 TIP3 633  TIP3 H1   HT            0.417         1.008       0
    2141 TIP3 633  TIP3 H2   HT            0.417         1.008       0
    2142 TIP3 634  TIP3 OH2  OT           -0.834       15.9994       0
    2143 TIP3 634  TIP3 H1   HT            0.417         1.008       0
    2144 TIP3 634  TIP3 H2   HT            0.417         1.008       0
    2145 TIP3 635  TIP3 OH2  OT           -0.834       15.9994       0
    2146 TIP3 635  TIP3 H1   HT            0.417         1.008       0
    2147 TIP3 635  TIP3 H2   HT            0.417         1.008       0
    2148 TIP3 636  TIP3 OH2  OT           -0.834       15.9994       0
    2149 TIP3 636  TIP3 H1   HT            0.417         1.008       0
    2150 TIP3 636  TIP3 H2   HT            0.417         1.008       0
    2151 TIP3 637  TIP3 OH2  OT           -0.834       15.9994       0
    2152 TIP3 637  TIP3 H1   HT            0.417         1.008       0
    2153 TIP3 637  TIP3 H2   HT            0.417         1.008       0
    2154 TIP3 638  TIP3 OH2  OT           -0.834       15.9994       0
    2155 TIP3 638  TIP3 H1   HT            0.417         1.008       0
    2156 TIP3 638  TIP3 H2   HT            0.417         1.008       0
    2157 TIP3 639  TIP3 OH2  OT           -0.834       15.9994       0
    2158 TIP3 639  TIP3 H1   HT            0.417         1.008       0
    2159 TIP3 639  TIP3 H2   HT            0.417         1.008       0
    2160 TIP3 640  TIP3 OH2  OT           -0.834       15.9994       0
    2161 TIP3 640  TIP3 H1   HT            0.417         1.008       0
    2162 TIP3 640  TIP3 H2   HT            0.417         1.008       0
    2163 TIP3 641  TIP3 OH2  OT           -0.834       15.9994       0
    2164 TIP3 641  TIP3 H1   HT            0.417         1.008       0
    2165 TIP3 641  TIP3 H2   HT            0.417         1.008       0
    2166 TIP3 642  TIP3 OH2  OT           -0.834       15.9994       0
    2167 TIP3 642  TIP3 H1   HT            0.417         1.008       0
    2168 TIP3 642  TIP3 H2   HT            0.417         1.008       0
    2169 TIP3 643  TIP3 OH2  OT           -0.834       15.9994       0
    2170 TIP3 643  TIP3 H1   HT            0.417         1.008       0
    2171 TIP3 643  TIP3 H2   HT            0.417         1.008       0
    2172 TIP3 644  TIP3 OH2  OT           -0.834       15.9994       0
    2173 TIP3 644  TIP3 H1   HT            0.417         1.008       0
    2174 TIP3 644  TIP3 H2   HT            0.417         1.008       0
    2175 TIP3 645  TIP3 OH2  OT           -0.834       15.9994       0
    2176 TIP3 645  TIP3 H1   HT            0.417         1.008       0
    2177 TIP3 645  TIP3 H2   HT            0.417         1.008       0
    2178 TIP3 646  TIP3 OH2  OT           -0.834       15.9994       0
    2179 TIP3 646  TIP3 H1   HT            0.417         1.008       0
    2180 TIP3 646  TIP3 H2   HT            0.417         1.008       0
    2181 TIP3 647  TIP3 OH2  OT           -0.834       15.9994       0
    2182 TIP3 647  TIP3 H1   HT            0.417         1.008       0
    2183 TIP3 647  TIP3 H2   HT            0.417         1.008       0
    2184 TIP3 648  TIP3 OH2  OT           -0.834       15.9994       0
    2185 TIP3 648  TIP3 H1   HT            0.417         1.008       0
    2186 TIP3 648  TIP3 H2   HT            0.417         1.008       0
    2187 TIP3 649  TIP3 OH2  OT           -0.834       15.9994       0
    2188 TIP3 649  TIP3 H1   HT            0.417         1.008       0
    2189 TIP3 649  TIP3 H2   HT            0.417         1.008       0
    2190 TIP3 650  TIP3 OH2  OT           -0.834       15.9994       0
    2191 TIP3 650  TIP3 H1   HT            0.417         1.008       0
    2192 TIP3 650  TIP3 H2   HT            0.417         1.008       0
    2193 TIP3 651  TIP3 OH2  OT           -0.834       15.9994       0
    2194 TIP3 651  TIP3 H1   HT            0.417         1.008       0
    2195 TIP3 651  TIP3 H2   HT            0.417         1.008       0
    2196 TIP3 652  TIP3 OH2  OT           -0.834       15.9994       0
    2197 TIP3 652  TIP3 H1   HT            0.417         1.008       0
    2198 TIP3 652  TIP3 H2   HT            0.417         1.008       0
    2199 TIP3 653  TIP3 OH2  OT           -0.834       15.9994       0
    2200 TIP3 653  TIP3 H1   HT            0.417         1.008       0
    2201 TIP3 653  TIP3 H2   HT            0.417         1.008       0
    2202 TIP3 654  TIP3 OH2  OT           -0.834       15.9994       0
    2203 TIP3 654  TIP3 H1   HT            0.417         1.008       0
    2204 TIP3 654  TIP3 H2   HT            0.417         1.008       0
    2205 TIP3 655  TIP3 OH2  OT           -0.834       15.9994       0
    2206 TIP3 655  TIP3 H1   HT            0.417         1.008       0
    2207 TIP3 655  TIP3 H2   HT            0.417         1.008       0
    2208 TIP3 656  TIP3 OH2  OT           -0.834       15.9994       0
    2209 TIP3 656  TIP3 H1   HT            0.417         1.008       0
    2210 TIP3 656  TIP3 H2   HT            0.417         1.008       0
    2211 TIP3 657  TIP3 OH2  OT           -0.834       15.9994       0
    2212 TIP3 657  TIP3 H1   HT            0.417         1.008       0
    2213 TIP3 657  TIP3 H2   HT            0.417         1.008       0
    2214 TIP3 658  TIP3 OH2  OT           -0.834       15.9994       0
    2215 TIP3 658  TIP3 H1   HT            0.417         1.008       0
    2216 TIP3 658  TIP3 H2   HT            0.417         1.008       0
    2217 TIP3 659  TIP3 OH2  OT           -0.834       15.9994       0
    2218 TIP3 659  TIP3 H1   HT            0.417         1.008       0
    2219 TIP3 659  TIP3 H2   HT            0.417         1.008       0
    2220 TIP3 660  TIP3 OH2  OT           -0.834       15.9994       0
    2221 TIP3 660  TIP3 H1   HT            0.417         1.008       0
    2222 TIP3 660  TIP3 H2   HT            0.417         1.008       0
    2223 TIP3 661  TIP3 OH2  OT           -0.834       15.9994       0
    2224 TIP3 661  TIP3 H1   HT            0.417         1.008       0
    2225 TIP3 661  TIP3 H2   HT            0.417         1.008       0
    2226 TIP3 662  TIP3 OH2  OT           -0.834       15.9994       0
    2227 TIP3 662  TIP3 H1   HT            0.417         1.008       0
    2228 TIP3 662  TIP3 H2   HT            0.417         1.008       0
    2229 TIP3 663  TIP3 OH2  OT           -0.834       15.9994       0
    2230 TIP3 663  TIP3 H1   HT            0.417         1.008       0
    2231 TIP3 663  TIP3 H2   HT            0.417         1.008       0
    2232 TIP3 664  TIP3 OH2  OT           -0.834       15.9994       0
    2233 TIP3 664  TIP3 H1   HT            0.417         1.008       0
    2234 TIP3 664  TIP3 H2   HT            0.417         1.008       0
    2235 TIP3 665  TIP3 OH2  OT           -0.834       15.9994       0
    2236 TIP3 665  TIP3 H1   HT            0.417         1.008       0
    2237 TIP3 665  TIP3 H2   HT            0.417         1.008       0
    2238 TIP3 666  TIP3 OH2  OT           -0.834       15.9994       0
    2239 TIP3 666  TIP3 H1   HT            0.417         1.008       0
    2240 TIP3 666  TIP3 H2   HT            0.417         1.008       0
    2241 TIP3 667  TIP3 OH2  OT           -0.834       15.9994       0
    2242 TIP3 667  TIP3 H1   HT            0.417         1.008       0
    2243 TIP3 667  TIP3 H2   HT            0.417         1.008       0
    2244 TIP3 668  TIP3 OH2  OT           -0.834       15.9994       0
    2245 TIP3 668  TIP3 H1   HT            0.417         1.008       0
    2246 TIP3 668  TIP3 H2   HT            0.417         1.008       0
    2247 TIP3 669  TIP3 OH2  OT           -0.834       15.9994       0
    2248 TIP3 669  TIP3 H1   HT            0.417         1.008       0
    2249 TIP3 669  TIP3 H2   HT            0.417         1.008       0
    2250 TIP3 670  TIP3 OH2  OT           -0.834       15.9994       0
    2251 TIP3 670  TIP3 H1   HT            0.417         1.008       0
    2252 TIP3 670  TIP3 H2   HT            0.417         1.008       0
    2253 TIP3 671  TIP3 OH2  OT           -0.834       15.9994       0
    2254 TIP3 671  TIP3 H1   HT            0.417         1.008       0
    2255 TIP3 671  TIP3 H2   HT            0.417         1.008       0
    2256 TIP3 672  TIP3 OH2  OT           -0.834       15.9994       0
    2257 TIP3 672  TIP3 H1   HT            0.417         1.008       0
    2258 TIP3 672  TIP3 H2   HT            0.417         1.008       0
    2259 TIP3 673  TIP3 OH2  OT           -0.834       15.9994       0
    2260 TIP3 673  TIP3 H1   HT            0.417         1.008       0
    2261 TIP3 673  TIP3 H2   HT            0.417         1.008       0
    2262 TIP3 674  TIP3 OH2  OT           -0.834       15.9994       0
    2263 TIP3 674  TIP3 H1   HT            0.417         1.008       0
    2264 TIP3 674  TIP3 H2   HT            0.417         1.008       0
    2265 TIP3 675  TIP3 OH2  OT           -0.834       15.9994       0
    2266 TIP3 675  TIP3 H1   HT            0.417         1.008       0
    2267 TIP3 675  TIP3 H2   HT            0.417         1.008       0
    2268 TIP3 676  TIP3 OH2  OT           -0.834       15.9994       0
    2269 TIP3 676  TIP3 H1   HT            0.417         1.008       0
    2270 TIP3 676  TIP3 H2   HT            0.417         1.008       0
    2271 TIP3 677  TIP3 OH2  OT           -0.834       15.9994       0
    2272 TIP3 677  TIP3 H1   HT            0.417         1.008       0
    2273 TIP3 677  TIP3 H2   HT            0.417         1.008       0
    2274 TIP3 678  TIP3 OH2  OT           -0.834       15.9994       0
    2275 TIP3 678  TIP3 H1   HT            0.417         1.008       0
    2276 TIP3 678  TIP3 H2   HT            0.417         1.008       0
    2277 TIP3 679  TIP3 OH2  OT           -0.834       15.9994       0
    2278 TIP3 679  TIP3 H1   HT            0.417         1.008       0
    2279 TIP3 679  TIP3 H2   HT            0.417         1.008       0
    2280 TIP3 680  TIP3 OH2  OT           -0.834       15.9994       0
    2281 TIP3 680  TIP3 H1   HT            0.417         1.008       0
    2282 TIP3 680  TIP3 H2   HT            0.417         1.008       0
    2283 TIP3 681  TIP3 OH2  OT           -0.834       15.9994       0
    2284 TIP3 681  TIP3 H1   HT            0.417         1.008       0
    2285 TIP3 681  TIP3 H2   HT            0.417         1.008       0
    2286 TIP3 682  TIP3 OH2  OT           -0.834       15.9994       0
    2287 TIP3 682  TIP3 H1   HT            0.417         1.008       0
    2288 TIP3 682  TIP3 H2   HT            0.417         1.008       0
    2289 TIP3 683  TIP3 OH2  OT           -0.834       15.9994       0
    2290 TIP3 683  TIP3 H1   HT            0.417         1.008       0
    2291 TIP3 683  TIP3 H2   HT            0.417         1.008       0
    2292 TIP3 684  TIP3 OH2  OT           -0.834       15.9994       0
    2293 TIP3 684  TIP3 H1   HT            0.417         1.008       0
    2294 TIP3 684  TIP3 H2   HT            0.417         1.008       0
    2295 TIP3 685  TIP3 OH2  OT           -0.834       15.9994       0
    2296 TIP3 685  TIP3 H1   HT            0.417         1.008       0
    2297 TIP3 685  TIP3 H2   HT            0.417         1.008       0
    2298 TIP3 686  TIP3 OH2  OT           -0.834       15.9994       0
    2299 TIP3 686  TIP3 H1   HT            0.417         1.008       0
    2300 TIP3 686  TIP3 H2   HT            0.417         1.008       0
    2301 TIP3 687  TIP3 OH2  OT           -0.834       15.9994       0
    2302 TIP3 687  TIP3 H1   HT            0.417         1.008       0
    2303 TIP3 687  TIP3 H2   HT            0.417         1.008       0
    2304 TIP3 688  TIP3 OH2  OT           -0.834       15.9994       0
    2305 TIP3 688  TIP3 H1   HT            0.417         1.008       0
    2306 TIP3 688  TIP3 H2   HT            0.417         1.008       0
    2307 TIP3 689  TIP3 OH2  OT           -0.834       15.9994       0
    2308 TIP3 689  TIP3 H1   HT            0.417         1.008       0
    2309 TIP3 689  TIP3 H2   HT            0.417         1.008       0
    2310 TIP3 690  TIP3 OH2  OT           -0.834       15.9994       0
    2311 TIP3 690  TIP3 H1   HT            0.417         1.008       0
    2312 TIP3 690  TIP3 H2   HT            0.417         1.008       0
    2313 TIP3 691  TIP3 OH2  OT           -0.834       15.9994       0
    2314 TIP3 691  TIP3 H1   HT            0.417         1.008       0
    2315 TIP3 691  TIP3 H2   HT            0.417         1.008       0
    2316 TIP3 692  TIP3 OH2  OT           -0.834       15.9994       0
    2317 TIP3 692  TIP3 H1   HT            0.417         1.008       0
    2318 TIP3 692  TIP3 H2   HT            0.417         1.008       0
    2319 TIP3 693  TIP3 OH2  OT           -0.834       15.9994       0
    2320 TIP3 693  TIP3 H1   HT            0.417         1.008       0
    2321 TIP3 693  TIP3 H2   HT            0.417         1.008       0
    2322 TIP3 694  TIP3 OH2  OT           -0.834       15.9994       0
    2323 TIP3 694  TIP3 H1   HT            0.417         1.008       0
    2324 TIP3 694  TIP3 H2   HT            0.417         1.008       0
    2325 TIP3 695  TIP3 OH2  OT           -0.834       15.9994       0
    2326 TIP3 695  TIP3 H1   HT            0.417         1.008       0
    2327 TIP3 695  TIP3 H2   HT            0.417         1.008       0
    2328 TIP3 696  TIP3 OH2  OT           -0.834       15.9994       0
    2329 TIP3 696  TIP3 H1   HT            0.417         1.008       0
    2330 TIP3 696  TIP3 H2   HT            0.417         1.008       0
    2331 TIP3 697  TIP3 OH2  OT           -0.834       15.9994       0
    2332 TIP3 697  TIP3 H1   HT            0.417         1.008       0
    2333 TIP3 697  TIP3 H2   HT            0.417         1.008       0
    2334 TIP3 698  TIP3 OH2  OT           -0.834       15.9994       0
    2335 TIP3 698  TIP3 H1   HT            0.417         1.008       0
    2336 TIP3 698  TIP3 H2   HT            0.417         1.008       0
    2337 TIP3 699  TIP3 OH2  OT           -0.834       15.9994       0
    2338 TIP3 699  TIP3 H1   HT            0.417         1.008       0
    2339 TIP3 699  TIP3 H2   HT            0.417         1.008       0
    2340 TIP3 700  TIP3 OH2  OT           -0.834       15.9994       0
    2341 TIP3 700  TIP3 H1   HT            0.417         1.008       0
    2342 TIP3 700  TIP3 H2   HT            0.417         1.008       0
    2343 TIP3 701  TIP3 OH2  OT           -0.834       15.9994       0
    2344 TIP3 701  TIP3 H1   HT            0.417         1.008       0
    2345 TIP3 701  TIP3 H2   HT            0.417         1.008       0
    2346 TIP3 702  TIP3 OH2  OT           -0.834       15.9994       0
    2347 TIP3 702  TIP3 H1   HT            0.417         1.008       0
    2348 TIP3 702  TIP3 H2   HT            0.417         1.008       0
    2349 TIP3 703  TIP3 OH2  OT           -0.834       15.9994       0
    2350 TIP3 703  TIP3 H1   HT            0.417         1.008       0
    2351 TIP3 703  TIP3 H2   HT            0.417         1.008       0
    2352 TIP3 704  TIP3 OH2  OT           -0.834       15.9994       0
    2353 TIP3 704  TIP3 H1   HT            0.417         1.008       0
    2354 TIP3 704  TIP3 H2   HT            0.417         1.008       0
    2355 TIP3 705  TIP3 OH2  OT           -0.834       15.9994       0
    2356 TIP3 705  TIP3 H1   HT            0.417         1.008       0
    2357 TIP3 705  TIP3 H2   HT            0.417         1.008       0
    2358 TIP3 706  TIP3 OH2  OT           -0.834       15.9994       0
    2359 TIP3 706  TIP3 H1   HT            0.417         1.008       0
    2360 TIP3 706  TIP3 H2   HT            0.417         1.008       0
    2361 TIP3 707  TIP3 OH2  OT           -0.834       15.9994       0
    2362 TIP3 707  TIP3 H1   HT            0.417         1.008       0
    2363 TIP3 707  TIP3 H2   HT            0.417         1.008       0
    2364 TIP3 708  TIP3 OH2  OT           -0.834       15.9994       0
    2365 TIP3 708  TIP3 H1   HT            0.417         1.008       0
    2366 TIP3 708  TIP3 H2   HT            0.417         1.008       0
    2367 TIP3 709  TIP3 OH2  OT           -0.834       15.9994       0
    2368 TIP3 709  TIP3 H1   HT            0.417         1.008       0
    2369 TIP3 709  TIP3 H2   HT            0.417         1.008       0
    2370 TIP3 710  TIP3 OH2  OT           -0.834       15.9994       0
    2371 TIP3 710  TIP3 H1   HT            0.417         1.008       0
    2372 TIP3 710  TIP3 H2   HT            0.417         1.008       0
    2373 TIP3 711  TIP3 OH2  OT           -0.834       15.9994       0
    2374 TIP3 711  TIP3 H1   HT            0.417         1.008       0
    2375 TIP3 711  TIP3 H2   HT            0.417         1.008       0
    2376 TIP3 712  TIP3 OH2  OT           -0.834       15.9994       0
    2377 TIP3 712  TIP3 H1   HT            0.417         1.008       0
    2378 TIP3 712  TIP3 H2   HT            0.417         1.008       0
    2379 TIP3 713  TIP3 OH2  OT           -0.834       15.9994       0
    2380 TIP3 713  TIP3 H1   HT            0.417         1.008       0
    2381 TIP3 713  TIP3 H2   HT            0.417         1.008       0
    2382 TIP3 714  TIP3 OH2  OT           -0.834       15.9994       0
    2383 TIP3 714  TIP3 H1   HT            0.417         1.008       0
    2384 TIP3 714  TIP3 H2   HT            0.417         1.008       0
    2385 TIP3 715  TIP3 OH2  OT           -0.834       15.9994       0
    2386 TIP3 715  TIP3 H1   HT            0.417         1.008       0
    2387 TIP3 715  TIP3 H2   HT            0.417         1.008       0
    2388 TIP3 716  TIP3 OH2  OT           -0.834       15.9994       0
    2389 TIP3 716  TIP3 H1   HT            0.417         1.008       0
    2390 TIP3 716  TIP3 H2   HT            0.417         1.008       0
    2391 TIP3 717  TIP3 OH2  OT           -0.834       15.9994       0
    2392 TIP3 717  TIP3 H1   HT            0.417         1.008       0
    2393 TIP3 717  TIP3 H2   HT            0.417         1.008       0
    2394 TIP3 718  TIP3 OH2  OT           -0.834       15.9994       0
    2395 TIP3 718  TIP3 H1   HT            0.417         1.008       0
    2396 TIP3 718  TIP3 H2   HT            0.417         1.008       0
    2397 TIP3 719  TIP3 OH2  OT           -0.834       15.9994       0
    2398 TIP3 719  TIP3 H1   HT            0.417         1.008       0
    2399 TIP3 719  TIP3 H2   HT            0.417         1.008       0
    2400 TIP3 720  TIP3 OH2  OT           -0.834       15.9994       0
    2401 TIP3 720  TIP3 H1   HT            0.417         1.008       0
    2402 TIP3 720  TIP3 H2   HT            0.417         1.008       0
    2403 TIP3 721  TIP3 OH2  OT           -0.834       15.9994       0
    2404 TIP3 721  TIP3 H1   HT            0.417         1.008       0
    2405 TIP3 721  TIP3 H2   HT            0.417         1.008       0
    2406 TIP3 722  TIP3 OH2  OT           -0.834       15.9994       0
    2407 TIP3 722  TIP3 H1   HT            0.417         1.008       0
    2408 TIP3 722  TIP3 H2   HT            0.417         1.008       0
    2409 TIP3 723  TIP3 OH2  OT           -0.834       15.9994       0
    2410 TIP3 723  TIP3 H1   HT            0.417         1.008       0
    2411 TIP3 723  TIP3 H2   HT            0.417         1.008       0
    2412 TIP3 724  TIP3 OH2  OT           -0.834       15.9994       0
    2413 TIP3 724  TIP3 H1   HT            0.417         1.008       0
    2414 TIP3 724  TIP3 H2   HT            0.417         1.008       0
    2415 TIP3 725  TIP3 OH2  OT           -0.834       15.9994       0
    2416 TIP3 725  TIP3 H1   HT            0.417         1.008       0
    2417 TIP3 725  TIP3 H2   HT            0.417         1.008       0
    2418 TIP3 726  TIP3 OH2  OT           -0.834       15.9994       0
    2419 TIP3 726  TIP3 H1   HT            0.417         1.008       0
    2420 TIP3 726  TIP3 H2   HT            0.417         1.008       0
    2421 TIP3 727  TIP3 OH2  OT           -0.834       15.9994       0
    2422 TIP3 727  TIP3 H1   HT            0.417         1.008       0
    2423 TIP3 727  TIP3 H2   HT            0.417         1.008       0
    2424 TIP3 728  TIP3 OH2  OT           -0.834       15.9994       0
    2425 TIP3 728  TIP3 H1   HT            0.417         1.008       0
    2426 TIP3 728  TIP3 H2   HT            0.417         1.008       0
    2427 TIP3 729  TIP3 OH2  OT           -0.834       15.9994       0
    2428 TIP3 729  TIP3 H1   HT            0.417         1.008       0
    2429 TIP3 729  TIP3 H2   HT            0.417         1.008       0
    2430 TIP3 730  TIP3 OH2  OT           -0.834       15.9994       0
    2431 TIP3 730  TIP3 H1   HT            0.417         1.008       0
    2432 TIP3 730  TIP3 H2   HT            0.417         1.008       0
    2433 TIP3 731  TIP3 OH2  OT           -0.834       15.9994       0
    2434 TIP3 731  TIP3 H1   HT            0.417         1.008       0
    2435 TIP3 731  TIP3 H2   HT            0.417         1.008       0
    2436 TIP3 732  TIP3 OH2  OT           -0.834       15.9994       0
    2437 TIP3 732  TIP3 H1   HT            0.417         1.008       0
    2438 TIP3 732  TIP3 H2   HT            0.417         1.008       0
    2439 TIP3 733  TIP3 OH2  OT           -0.834       15.9994       0
    2440 TIP3 733  TIP3 H1   HT            0.417         1.008       0
    2441 TIP3 733  TIP3 H2   HT            0.417         1.008       0
    2442 TIP3 734  TIP3 OH2  OT           -0.834       15.9994       0
    2443 TIP3 734  TIP3 H1   HT            0.417         1.008       0
    2444 TIP3 734  TIP3 H2   HT            0.417         1.008       0
    2445 TIP3 735  TIP3 OH2  OT           -0.834       15.9994       0
    2446 TIP3 735  TIP3 H1   HT            0.417         1.008       0
    2447 TIP3 735  TIP3 H2   HT            0.417         1.008       0
    2448 TIP3 736  TIP3 OH2  OT           -0.834       15.9994       0
    2449 TIP3 736  TIP3 H1   HT            0.417         1.008       0
    2450 TIP3 736  TIP3 H2   HT            0.417         1.008       0
    2451 TIP3 737  TIP3 OH2  OT           -0.834       15.9994       0
    2452 TIP3 737  TIP3 H1   HT            0.417         1.008       0
    2453 TIP3 737  TIP3 H2   HT            0.417         1.008       0
    2454 TIP3 738  TIP3 OH2  OT           -0.834       15.9994       0
    2455 TIP3 738  TIP3 H1   HT            0.417         1.008       0
    2456 TIP3 738  TIP3 H2   HT            0.417         1.008       0
    2457 TIP3 739  TIP3 OH2  OT           -0.834       15.9994       0
    2458 TIP3 739  TIP3 H1   HT            0.417         1.008       0
    2459 TIP3 739  TIP3 H2   HT            0.417         1.008       0
    2460 TIP3 740  TIP3 OH2  OT           -0.834       15.9994       0
    2461 TIP3 740  TIP3 H1   HT            0.417         1.008       0
    2462 TIP3 740  TIP3 H2   HT            0.417         1.008       0
    2463 TIP3 741  TIP3 OH2  OT           -0.834       15.9994       0
    2464 TIP3 741  TIP3 H1   HT            0.417         1.008       0
    2465 TIP3 741  TIP3 H2   HT            0.417         1.008       0
    2466 TIP3 742  TIP3 OH2  OT           -0.834       15.9994       0
    2467 TIP3 742  TIP3 H1   HT            0.417         1.008       0
    2468 TIP3 742  TIP3 H2   HT            0.417         1.008       0
    2469 TIP3 743  TIP3 OH2  OT           -0.834       15.9994       0
    2470 TIP3 743  TIP3 H1   HT            0.417         1.008       0
    2471 TIP3 743  TIP3 H2   HT            0.417         1.008       0
    2472 TIP3 744  TIP3 OH2  OT           -0.834       15.9994       0
    2473 TIP3 744  TIP3 H1   HT            0.417         1.008       0
    2474 TIP3 744  TIP3 H2   HT            0.417         1.008       0
    2475 TIP3 745  TIP3 OH2  OT           -0.834       15.9994       0
    2476 TIP3 745  TIP3 H1   HT            0.417         1.008       0
    2477 TIP3 745  TIP3 H2   HT            0.417         1.008       0
    2478 TIP3 746  TIP3 OH2  OT           -0.834       15.9994       0
    2479 TIP3 746  TIP3 H1   HT            0.417         1.008       0
    2480 TIP3 746  TIP3 H2   HT            0.417         1.008       0
    2481 TIP3 747  TIP3 OH2  OT           -0.834       15.9994       0
    2482 TIP3 747  TIP3 H1   HT            0.417         1.008       0
    2483 TIP3 747  TIP3 H2   HT            0.417         1.008       0
    2484 TIP3 748  TIP3 OH2  OT           -0.834       15.9994       0
    2485 TIP3 748  TIP3 H1   HT            0.417         1.008       0
    2486 TIP3 748  TIP3 H2   HT            0.417         1.008       0
    2487 TIP3 749  TIP3 OH2  OT           -0.834       15.9994       0
    2488 TIP3 749  TIP3 H1   HT            0.417         1.008       0
    2489 TIP3 749  TIP3 H2   HT            0.417         1.008       0
    2490 TIP3 750  TIP3 OH2  OT           -0.834       15.9994       0
    2491 TIP3 750  TIP3 H1   HT            0.417         1.008       0
    2492 TIP3 750  TIP3 H2   HT            0.417         1.008       0
    2493 TIP3 751  TIP3 OH2  OT           -0.834       15.9994       0
    2494 TIP3 751  TIP3 H1   HT            0.417         1.008       0
    2495 TIP3 751  TIP3 H2   HT            0.417         1.008       0
    2496 TIP3 752  TIP3 OH2  OT           -0.834       15.9994       0
    2497 TIP3 752  TIP3 H1   HT            0.417         1.008       0
    2498 TIP3 752  TIP3 H2   HT            0.417         1.008       0
    2499 TIP3 753  TIP3 OH2  OT           -0.834       15.9994       0
    2500 TIP3 753  TIP3 H1   HT            0.417         1.008       0
    2501 TIP3 753  TIP3 H2   HT            0.417         1.008       0
    2502 TIP3 754  TIP3 OH2  OT           -0.834       15.9994       0
    2503 TIP3 754  TIP3 H1   HT            0.417         1.008       0
    2504 TIP3 754  TIP3 H2   HT            0.417         1.008       0
    2505 TIP3 755  TIP3 OH2  OT           -0.834       15.9994       0
    2506 TIP3 755  TIP3 H1   HT            0.417         1.008       0
    2507 TIP3 755  TIP3 H2   HT            0.417         1.008       0
    2508 TIP3 756  TIP3 OH2  OT           -0.834       15.9994       0
    2509 TIP3 756  TIP3 H1   HT            0.417         1.008       0
    2510 TIP3 756  TIP3 H2   HT            0.417         1.008       0
    2511 TIP3 757  TIP3 OH2  OT           -0.834       15.9994       0
    2512 TIP3 757  TIP3 H1   HT            0.417         1.008       0
    2513 TIP3 757  TIP3 H2   HT            0.417         1.008       0
    2514 TIP3 758  TIP3 OH2  OT           -0.834       15.9994       0
    2515 TIP3 758  TIP3 H1   HT            0.417         1.008       0
    2516 TIP3 758  TIP3 H2   HT            0.417         1.008       0
    2517 TIP3 759  TIP3 OH2  OT           -0.834       15.9994       0
    2518 TIP3 759  TIP3 H1   HT            0.417         1.008       0
    2519 TIP3 759  TIP3 H2   HT            0.417         1.008       0
    2520 TIP3 760  TIP3 OH2  OT           -0.834       15.9994       0
    2521 TIP3 760  TIP3 H1   HT            0.417         1.008       0
    2522 TIP3 760  TIP3 H2   HT            0.417         1.008       0
    2523 TIP3 761  TIP3 OH2  OT           -0.834       15.9994       0
    2524 TIP3 761  TIP3 H1   HT            0.417         1.008       0
    2525 TIP3 761  TIP3 H2   HT            0.417         1.008       0
    2526 TIP3 762  TIP3 OH2  OT           -0.834       15.9994       0
    2527 TIP3 762  TIP3 H1   HT            0.417         1.008       0
    2528 TIP3 762  TIP3 H2   HT            0.417         1.008       0
    2529 TIP3 763  TIP3 OH2  OT           -0.834       15.9994       0
    2530 TIP3 763  TIP3 H1   HT            0.417         1.008       0
    2531 TIP3 763  TIP3 H2   HT            0.417         1.008       0
    2532 TIP3 764  TIP3 OH2  OT           -0.834       15.9994       0
    2533 TIP3 764  TIP3 H1   HT            0.417         1.008       0
    2534 TIP3 764  TIP3 H2   HT            0.417         1.008       0
    2535 TIP3 765  TIP3 OH2  OT           -0.834       15.9994       0
    2536 TIP3 765  TIP3 H1   HT            0.417         1.008       0
    2537 TIP3 765  TIP3 H2   HT            0.417         1.008       0
    2538 TIP3 766  TIP3 OH2  OT           -0.834       15.9994       0
    2539 TIP3 766  TIP3 H1   HT            0.417         1.008       0
    2540 TIP3 766  TIP3 H2   HT            0.417         1.008       0
    2541 TIP3 767  TIP3 OH2  OT           -0.834       15.9994       0
    2542 TIP3 767  TIP3 H1   HT            0.417         1.008       0
    2543 TIP3 767  TIP3 H2   HT            0.417         1.008       0
    2544 TIP3 768  TIP3 OH2  OT           -0.834       15.9994       0
    2545 TIP3 768  TIP3 H1   HT            0.417         1.008       0
    2546 TIP3 768  TIP3 H2   HT            0.417         1.008       0
    2547 TIP3 769  TIP3 OH2  OT           -0.834       15.9994       0
    2548 TIP3 769  TIP3 H1   HT            0.417         1.008       0
    2549 TIP3 769  TIP3 H2   HT            0.417         1.008       0
    2550 TIP3 770  TIP3 OH2  OT           -0.834       15.9994       0
    2551 TIP3 770  TIP3 H1   HT            0.417         1.008       0
    2552 TIP3 770  TIP3 H2   HT            0.417         1.008       0
    2553 TIP3 771  TIP3 OH2  OT           -0.834       15.9994       0
    2554 TIP3 771  TIP3 H1   HT            0.417         1.008       0
    2555 TIP3 771  TIP3 H2   HT            0.417         1.008       0
    2556 TIP3 772  TIP3 OH2  OT           -0.834       15.9994       0
    2557 TIP3 772  TIP3 H1   HT            0.417         1.008       0
    2558 TIP3 772  TIP3 H2   HT            0.417         1.008       0
    2559 TIP3 773  TIP3 OH2  OT           -0.834       15.9994       0
    2560 TIP3 773  TIP3 H1   HT            0.417         1.008       0
    2561 TIP3 773  TIP3 H2   HT            0.417         1.008       0
    2562 TIP3 774  TIP3 OH2  OT           -0.834       15.9994       0
    2563 TIP3 774  TIP3 H1   HT            0.417         1.008       0
    2564 TIP3 774  TIP3 H2   HT            0.417         1.008       0
    2565 TIP3 775  TIP3 OH2  OT           -0.834       15.9994       0
    2566 TIP3 775  TIP3 H1   HT            0.417         1.008       0
    2567 TIP3 775  TIP3 H2   HT            0.417         1.008       0
    2568 TIP3 776  TIP3 OH2  OT           -0.834       15.9994       0
    2569 TIP3 776  TIP3 H1   HT            0.417         1.008       0
    2570 TIP3 776  TIP3 H2   HT            0.417         1.008       0
    2571 TIP3 777  TIP3 OH2  OT           -0.834       15.9994       0
    2572 TIP3 777  TIP3 H1   HT            0.417         1.008       0
    2573 TIP3 777  TIP3 H2   HT            0.417         1.008       0
    2574 TIP3 778  TIP3 OH2  OT           -0.834       15.9994       0
    2575 TIP3 778  TIP3 H1   HT            0.417         1.008       0
    2576 TIP3 778  TIP3 H2   HT            0.417         1.008       0
    2577 TIP3 779  TIP3 OH2  OT           -0.834       15.9994       0
    2578 TIP3 779  TIP3 H1   HT            0.417         1.008       0
    2579 TIP3 779  TIP3 H2   HT            0.417         1.008       0
    2580 TIP3 780  TIP3 OH2  OT           -0.834       15.9994       0
    2581 TIP3 780  TIP3 H1   HT            0.417         1.008       0
    2582 TIP3 780  TIP3 H2   HT            0.417         1.008       0
    2583 TIP3 781  TIP3 OH2  OT           -0.834       15.9994       0
    2584 TIP3 781  TIP3 H1   HT            0.417         1.008       0
    2585 TIP3 781  TIP3 H2   HT            0.417         1.008       0
    2586 TIP3 782  TIP3 OH2  OT           -0.834       15.9994       0
    2587 TIP3 782  TIP3 H1   HT            0.417         1.008       0
    2588 TIP3 782  TIP3 H2   HT            0.417         1.008       0
    2589 TIP3 783  TIP3 OH2  OT           -0.834       15.9994       0
    2590 TIP3 783  TIP3 H1   HT            0.417         1.008       0
    2591 TIP3 783  TIP3 H2   HT            0.417         1.008       0
    2592 TIP3 784  TIP3 OH2  OT           -0.834       15.9994       0
    2593 TIP3 784  TIP3 H1   HT            0.417         1.008       0
    2594 TIP3 784  TIP3 H2   HT            0.417         1.008       0
    2595 TIP3 785  TIP3 OH2  OT           -0.834       15.9994       0
    2596 TIP3 785  TIP3 H1   HT            0.417         1.008       0
    2597 TIP3 785  TIP3 H2   HT            0.417         1.008       0
    2598 TIP3 786  TIP3 OH2  OT           -0.834       15.9994       0
    2599 TIP3 786  TIP3 H1   HT            0.417         1.008       0
    2600 TIP3 786  TIP3 H2   HT            0.417         1.008       0
    2601 TIP3 787  TIP3 OH2  OT           -0.834       15.9994       0
    2602 TIP3 787  TIP3 H1   HT            0.417         1.008       0
    2603 TIP3 787  TIP3 H2   HT            0.417         1.008       0
    2604 TIP3 788  TIP3 OH2  OT           -0.834       15.9994       0
    2605 TIP3 788  TIP3 H1   HT            0.417         1.008       0
    2606 TIP3 788  TIP3 H2   HT            0.417         1.008       0
    2607 TIP3 789  TIP3 OH2  OT           -0.834       15.9994       0
    2608 TIP3 789  TIP3 H1   HT            0.417         1.008       0
    2609 TIP3 789  TIP3 H2   HT            0.417         1.008       0
    2610 TIP3 790  TIP3 OH2  OT           -0.834       15.9994       0
    2611 TIP3 790  TIP3 H1   HT            0.417         1.008       0
    2612 TIP3 790  TIP3 H2   HT            0.417         1.008       0
    2613 TIP3 791  TIP3 OH2  OT           -0.834       15.9994       0
    2614 TIP3 791  TIP3 H1   HT            0.417         1.008       0
    2615 TIP3 791  TIP3 H2   HT            0.417         1.008       0
    2616 TIP3 792  TIP3 OH2  OT           -0.834       15.9994       0
    2617 TIP3 792  TIP3 H1   HT            0.417         1.008       0
    2618 TIP3 792  TIP3 H2   HT            0.417         1.008       0
    2619 TIP3 793  TIP3 OH2  OT           -0.834       15.9994       0
    2620 TIP3 793  TIP3 H1   HT            0.417         1.008       0
    2621 TIP3 793  TIP3 H2   HT            0.417         1.008       0
    2622 TIP3 794  TIP3 OH2  OT           -0.834       15.9994       0
    2623 TIP3 794  TIP3 H1   HT            0.417         1.008       0
    2624 TIP3 794  TIP3 H2   HT            0.417         1.008       0
    2625 TIP3 795  TIP3 OH2  OT           -0.834       15.9994       0
    2626 TIP3 795  TIP3 H1   HT            0.417         1.008       0
    2627 TIP3 795  TIP3 H2   HT            0.417         1.008       0
    2628 TIP3 796  TIP3 OH2  OT           -0.834       15.9994       0
    2629 TIP3 796  TIP3 H1   HT            0.417         1.008       0
    2630 TIP3 796  TIP3 H2   HT            0.417         1.008       0
    2631 TIP3 797  TIP3 OH2  OT           -0.834       15.9994       0
    2632 TIP3 797  TIP3 H1   HT            0.417         1.008       0
    2633 TIP3 797  TIP3 H2   HT            0.417         1.008       0
    2634 TIP3 798  TIP3 OH2  OT           -0.834       15.9994       0
    2635 TIP3 798  TIP3 H1   HT            0.417         1.008       0
    2636 TIP3 798  TIP3 H2   HT            0.417         1.008       0
    2637 TIP3 799  TIP3 OH2  OT           -0.834       15.9994       0
    2638 TIP3 799  TIP3 H1   HT            0.417         1.008       0
    2639 TIP3 799  TIP3 H2   HT            0.417         1.008       0
    2640 TIP3 800  TIP3 OH2  OT           -0.834       15.9994       0
    2641 TIP3 800  TIP3 H1   HT            0.417         1.008       0
    2642 TIP3 800  TIP3 H2   HT            0.417         1.008       0
    2643 TIP3 801  TIP3 OH2  OT           -0.834       15.9994       0
    2644 TIP3 801  TIP3 H1   HT            0.417         1.008       0
    2645 TIP3 801  TIP3 H2   HT            0.417         1.008       0
    2646 TIP3 802  TIP3 OH2  OT           -0.834       15.9994       0
    2647 TIP3 802  TIP3 H1   HT            0.417         1.008       0
    2648 TIP3 802  TIP3 H2   HT            0.417         1.008       0
    2649 TIP3 803  TIP3 OH2  OT           -0.834       15.9994       0
    2650 TIP3 803  TIP3 H1   HT            0.417         1.008       0
    2651 TIP3 803  TIP3 H2   HT            0.417         1.008       0
    2652 TIP3 804  TIP3 OH2  OT           -0.834       15.9994       0
    2653 TIP3 804  TIP3 H1   HT            0.417         1.008       0
    2654 TIP3 804  TIP3 H2   HT            0.417         1.008       0
    2655 TIP3 805  TIP3 OH2  OT           -0.834       15.9994       0
    2656 TIP3 805  TIP3 H1   HT            0.417         1.008       0
    2657 TIP3 805  TIP3 H2   HT            0.417         1.008       0
    2658 TIP3 806  TIP3 OH2  OT           -0.834       15.9994       0
    2659 TIP3 806  TIP3 H1   HT            0.417         1.008       0
    2660 TIP3 806  TIP3 H2   HT            0.417         1.008       0
    2661 TIP3 807  TIP3 OH2  OT           -0.834       15.9994       0
    2662 TIP3 807  TIP3 H1   HT            0.417         1.008       0
    2663 TIP3 807  TIP3 H2   HT            0.417         1.008       0
    2664 TIP3 808  TIP3 OH2  OT           -0.834       15.9994       0
    2665 TIP3 808  TIP3 H1   HT            0.417         1.008       0
    2666 TIP3 808  TIP3 H2   HT            0.417         1.008       0
    2667 TIP3 809  TIP3 OH2  OT           -0.834       15.9994       0
    2668 TIP3 809  TIP3 H1   HT            0.417         1.008       0
    2669 TIP3 809  TIP3 H2   HT            0.417         1.008       0
    2670 TIP3 810  TIP3 OH2  OT           -0.834       15.9994       0
    2671 TIP3 810  TIP3 H1   HT            0.417         1.008       0
    2672 TIP3 810  TIP3 H2   HT            0.417         1.008       0
    2673 TIP3 811  TIP3 OH2  OT           -0.834       15.9994       0
    2674 TIP3 811  TIP3 H1   HT            0.417         1.008       0
    2675 TIP3 811  TIP3 H2   HT            0.417         1.008       0
    2676 TIP3 812  TIP3 OH2  OT           -0.834       15.9994       0
    2677 TIP3 812  TIP3 H1   HT            0.417         1.008       0
    2678 TIP3 812  TIP3 H2   HT            0.417         1.008       0
    2679 TIP3 813  TIP3 OH2  OT           -0.834       15.9994       0
    2680 TIP3 813  TIP3 H1   HT            0.417         1.008       0
    2681 TIP3 813  TIP3 H2   HT            0.417         1.008       0
    2682 TIP3 814  TIP3 OH2  OT           -0.834       15.9994       0
    2683 TIP3 814  TIP3 H1   HT            0.417         1.008       0
    2684 TIP3 814  TIP3 H2   HT            0.417         1.008       0
    2685 TIP3 815  TIP3 OH2  OT           -0.834       15.9994       0
    2686 TIP3 815  TIP3 H1   HT            0.417         1.008       0
    2687 TIP3 815  TIP3 H2   HT            0.417         1.008       0
    2688 TIP3 816  TIP3 OH2  OT           -0.834       15.9994       0
    2689 TIP3 816  TIP3 H1   HT            0.417         1.008       0
    2690 TIP3 816  TIP3 H2   HT            0.417         1.008       0
    2691 TIP3 817  TIP3 OH2  OT           -0.834       15.9994       0
    2692 TIP3 817  TIP3 H1   HT            0.417         1.008       0
    2693 TIP3 817  TIP3 H2   HT            0.417         1.008       0
    2694 TIP3 818  TIP3 OH2  OT           -0.834       15.9994       0
    2695 TIP3 818  TIP3 H1   HT            0.417         1.008       0
    2696 TIP3 818  TIP3 H2   HT            0.417         1.008       0
    2697 TIP3 819  TIP3 OH2  OT           -0.834       15.9994       0
    2698 TIP3 819  TIP3 H1   HT            0.417         1.008       0
    2699 TIP3 819  TIP3 H2   HT            0.417         1.008       0
    2700 TIP3 820  TIP3 OH2  OT           -0.834       15.9994       0
    2701 TIP3 820  TIP3 H1   HT            0.417         1.008       0
    2702 TIP3 820  TIP3 H2   HT            0.417         1.008       0
    2703 TIP3 821  TIP3 OH2  OT           -0.834       15.9994       0
    2704 TIP3 821  TIP3 H1   HT            0.417         1.008       0
    2705 TIP3 821  TIP3 H2   HT            0.417         1.008       0
    2706 TIP3 822  TIP3 OH2  OT           -0.834       15.9994       0
    2707 TIP3 822  TIP3 H1   HT            0.417         1.008       0
    2708 TIP3 822  TIP3 H2   HT            0.417         1.008       0
    2709 TIP3 823  TIP3 OH2  OT           -0.834       15.9994       0
    2710 TIP3 823  TIP3 H1   HT            0.417         1.008       0
    2711 TIP3 823  TIP3 H2   HT            0.417         1.008       0
    2712 TIP3 824  TIP3 OH2  OT           -0.834       15.9994       0
    2713 TIP3 824  TIP3 H1   HT            0.417         1.008       0
    2714 TIP3 824  TIP3 H2   HT            0.417         1.008       0
    2715 TIP3 825  TIP3 OH2  OT           -0.834       15.9994       0
    2716 TIP3 825  TIP3 H1   HT            0.417         1.008       0
    2717 TIP3 825  TIP3 H2   HT            0.417         1.008       0
    2718 TIP3 826  TIP3 OH2  OT           -0.834       15.9994       0
    2719 TIP3 826  TIP3 H1   HT            0.417         1.008       0
    2720 TIP3 826  TIP3 H2   HT            0.417         1.008       0
    2721 TIP3 827  TIP3 OH2  OT           -0.834       15.9994       0
    2722 TIP3 827  TIP3 H1   HT            0.417         1.008       0
    2723 TIP3 827  TIP3 H2   HT            0.417         1.008       0
    2724 TIP3 828  TIP3 OH2  OT           -0.834       15.9994       0
    2725 TIP3 828  TIP3 H1   HT            0.417         1.008       0
    2726 TIP3 828  TIP3 H2   HT            0.417         1.008       0
    2727 TIP3 829  TIP3 OH2  OT           -0.834       15.9994       0
    2728 TIP3 829  TIP3 H1   HT            0.417         1.008       0
    2729 TIP3 829  TIP3 H2   HT            0.417         1.008       0
    2730 TIP3 830  TIP3 OH2  OT           -0.834       15.9994       0
    2731 TIP3 830  TIP3 H1   HT            0.417         1.008       0
    2732 TIP3 830  TIP3 H2   HT            0.417         1.008       0
    2733 TIP3 831  TIP3 OH2  OT           -0.834       15.9994       0
    2734 TIP3 831  TIP3 H1   HT            0.417         1.008       0
    2735 TIP3 831  TIP3 H2   HT            0.417         1.008       0
    2736 TIP3 832  TIP3 OH2  OT           -0.834       15.9994       0
    2737 TIP3 832  TIP3 H1   HT            0.417         1.008       0
    2738 TIP3 832  TIP3 H2   HT            0.417         1.008       0
    2739 TIP3 833  TIP3 OH2  OT           -0.834       15.9994       0
    2740 TIP3 833  TIP3 H1   HT            0.417         1.008       0
    2741 TIP3 833  TIP3 H2   HT            0.417         1.008       0
    2742 TIP3 834  TIP3 OH2  OT           -0.834       15.9994       0
    2743 TIP3 834  TIP3 H1   HT            0.417         1.008       0
    2744 TIP3 834  TIP3 H2   HT            0.417         1.008       0
    2745 TIP3 835  TIP3 OH2  OT           -0.834       15.9994       0
    2746 TIP3 835  TIP3 H1   HT            0.417         1.008       0
    2747 TIP3 835  TIP3 H2   HT            0.417         1.008       0
    2748 TIP3 836  TIP3 OH2  OT           -0.834       15.9994       0
    2749 TIP3 836  TIP3 H1   HT            0.417         1.008       0
    2750 TIP3 836  TIP3 H2   HT            0.417         1.008       0
    2751 TIP3 837  TIP3 OH2  OT           -0.834       15.9994       0
    2752 TIP3 837  TIP3 H1   HT            0.417         1.008       0
    2753 TIP3 837  TIP3 H2   HT            0.417         1.008       0
    2754 TIP3 838  TIP3 OH2  OT           -0.834       15.9994       0
    2755 TIP3 838  TIP3 H1   HT            0.417         1.008       0
    2756 TIP3 838  TIP3 H2   HT            0.417         1.008       0
    2757 TIP3 839  TIP3 OH2  OT           -0.834       15.9994       0
    2758 TIP3 839  TIP3 H1   HT            0.417         1.008       0
    2759 TIP3 839  TIP3 H2   HT            0.417         1.008       0
    2760 TIP3 840  TIP3 OH2  OT           -0.834       15.9994       0
    2761 TIP3 840  TIP3 H1   HT            0.417         1.008       0
    2762 TIP3 840  TIP3 H2   HT            0.417         1.008       0
    2763 TIP3 841  TIP3 OH2  OT           -0.834       15.9994       0
    2764 TIP3 841  TIP3 H1   HT            0.417         1.008       0
    2765 TIP3 841  TIP3 H2   HT            0.417         1.008       0
    2766 TIP3 842  TIP3 OH2  OT           -0.834       15.9994       0
    2767 TIP3 842  TIP3 H1   HT            0.417         1.008       0
    2768 TIP3 842  TIP3 H2   HT            0.417         1.008       0
    2769 TIP3 843  TIP3 OH2  OT           -0.834       15.9994       0
    2770 TIP3 843  TIP3 H1   HT            0.417         1.008       0
    2771 TIP3 843  TIP3 H2   HT            0.417         1.008       0
    2772 TIP3 844  TIP3 OH2  OT           -0.834       15.9994       0
    2773 TIP3 844  TIP3 H1   HT            0.417         1.008       0
    2774 TIP3 844  TIP3 H2   HT            0.417         1.008       0
    2775 TIP3 845  TIP3 OH2  OT           -0.834       15.9994       0
    2776 TIP3 845  TIP3 H1   HT            0.417         1.008       0
    2777 TIP3 845  TIP3 H2   HT            0.417         1.008       0
    2778 TIP3 846  TIP3 OH2  OT           -0.834       15.9994       0
    2779 TIP3 846  TIP3 H1   HT            0.417         1.008       0
    2780 TIP3 846  TIP3 H2   HT            0.417         1.008       0
    2781 TIP3 847  TIP3 OH2  OT           -0.834       15.9994       0
    2782 TIP3 847  TIP3 H1   HT            0.417         1.008       0
    2783 TIP3 847  TIP3 H2   HT            0.417         1.008       0
    2784 TIP3 848  TIP3 OH2  OT           -0.834       15.9994       0
    2785 TIP3 848  TIP3 H1   HT            0.417         1.008       0
    2786 TIP3 848  TIP3 H2   HT            0.417         1.008       0
    2787 TIP3 849  TIP3 OH2  OT           -0.834       15.9994       0
    2788 TIP3 849  TIP3 H1   HT            0.417         1.008       0
    2789 TIP3 849  TIP3 H2   HT            0.417         1.008       0
    2790 TIP3 850  TIP3 OH2  OT           -0.834       15.9994       0
    2791 TIP3 850  TIP3 H1   HT            0.417         1.008       0
    2792 TIP3 850  TIP3 H2   HT            0.417         1.008       0
    2793 TIP3 851  TIP3 OH2  OT           -0.834       15.9994       0
    2794 TIP3 851  TIP3 H1   HT            0.417         1.008       0
    2795 TIP3 851  TIP3 H2   HT            0.417         1.008       0
    2796 TIP3 852  TIP3 OH2  OT           -0.834       15.9994       0
    2797 TIP3 852  TIP3 H1   HT            0.417         1.008       0
    2798 TIP3 852  TIP3 H2   HT            0.417         1.008       0
    2799 TIP3 853  TIP3 OH2  OT           -0.834       15.9994       0
    2800 TIP3 853  TIP3 H1   HT            0.417         1.008       0
    2801 TIP3 853  TIP3 H2   HT            0.417         1.008       0
    2802 TIP3 854  TIP3 OH2  OT           -0.834       15.9994       0
    2803 TIP3 854  TIP3 H1   HT            0.417         1.008       0
    2804 TIP3 854  TIP3 H2   HT            0.417         1.008       0
    2805 TIP3 855  TIP3 OH2  OT           -0.834       15.9994       0
    2806 TIP3 855  TIP3 H1   HT            0.417         1.008       0
    2807 TIP3 855  TIP3 H2   HT            0.417         1.008       0
    2808 TIP3 856  TIP3 OH2  OT           -0.834       15.9994       0
    2809 TIP3 856  TIP3 H1   HT            0.417         1.008       0
    2810 TIP3 856  TIP3 H2   HT            0.417         1.008       0
    2811 TIP3 857  TIP3 OH2  OT           -0.834       15.9994       0
    2812 TIP3 857  TIP3 H1   HT            0.417         1.008       0
    2813 TIP3 857  TIP3 H2   HT            0.417         1.008       0
    2814 TIP3 858  TIP3 OH2  OT           -0.834       15.9994       0
    2815 TIP3 858  TIP3 H1   HT            0.417         1.008       0
    2816 TIP3 858  TIP3 H2   HT            0.417         1.008       0
    2817 TIP3 859  TIP3 OH2  OT           -0.834       15.9994       0
    2818 TIP3 859  TIP3 H1   HT            0.417         1.008       0
    2819 TIP3 859  TIP3 H2   HT            0.417         1.008       0
    2820 TIP3 860  TIP3 OH2  OT           -0.834       15.9994       0
    2821 TIP3 860  TIP3 H1   HT            0.417         1.008       0
    2822 TIP3 860  TIP3 H2   HT            0.417         1.008       0
    2823 TIP3 861  TIP3 OH2  OT           -0.834       15.9994       0
    2824 TIP3 861  TIP3 H1   HT            0.417         1.008       0
    2825 TIP3 861  TIP3 H2   HT            0.417         1.008       0
    2826 TIP3 862  TIP3 OH2  OT           -0.834       15.9994       0
    2827 TIP3 862  TIP3 H1   HT            0.417         1.008       0
    2828 TIP3 862  TIP3 H2   HT            0.417         1.008       0
    2829 TIP3 863  TIP3 OH2  OT           -0.834       15.9994       0
    2830 TIP3 863  TIP3 H1   HT            0.417         1.008       0
    2831 TIP3 863  TIP3 H2   HT            0.417         1.008       0
    2832 TIP3 864  TIP3 OH2  OT           -0.834       15.9994       0
    2833 TIP3 864  TIP3 H1   HT            0.417         1.008       0
    2834 TIP3 864  TIP3 H2   HT            0.417         1.008       0
    2835 TIP3 865  TIP3 OH2  OT           -0.834       15.9994       0
    2836 TIP3 865  TIP3 H1   HT            0.417         1.008       0
    2837 TIP3 865  TIP3 H2   HT            0.417         1.008       0
    2838 TIP3 866  TIP3 OH2  OT           -0.834       15.9994       0
    2839 TIP3 866  TIP3 H1   HT            0.417         1.008       0
    2840 TIP3 866  TIP3 H2   HT            0.417         1.008       0
    2841 TIP3 867  TIP3 OH2  OT           -0.834       15.9994       0
    2842 TIP3 867  TIP3 H1   HT            0.417         1.008       0
    2843 TIP3 867  TIP3 H2   HT            0.417         1.008       0
    2844 TIP3 868  TIP3 OH2  OT           -0.834       15.9994       0
    2845 TIP3 868  TIP3 H1   HT            0.417         1.008       0
    2846 TIP3 868  TIP3 H2   HT            0.417         1.008       0
    2847 TIP3 869  TIP3 OH2  OT           -0.834       15.9994       0
    2848 TIP3 869  TIP3 H1   HT            0.417         1.008       0
    2849 TIP3 869  TIP3 H2   HT            0.417         1.008       0
    2850 TIP3 870  TIP3 OH2  OT           -0.834       15.9994       0
    2851 TIP3 870  TIP3 H1   HT            0.417         1.008       0
    2852 TIP3 870  TIP3 H2   HT            0.417         1.008       0
    2853 TIP3 871  TIP3 OH2  OT           -0.834       15.9994       0
    2854 TIP3 871  TIP3 H1   HT            0.417         1.008       0
    2855 TIP3 871  TIP3 H2   HT            0.417         1.008       0
    2856 TIP3 872  TIP3 OH2  OT           -0.834       15.9994       0
    2857 TIP3 872  TIP3 H1   HT            0.417         1.008       0
    2858 TIP3 872  TIP3 H2   HT            0.417         1.008       0
    2859 TIP3 873  TIP3 OH2  OT           -0.834       15.9994       0
    2860 TIP3 873  TIP3 H1   HT            0.417         1.008       0
    2861 TIP3 873  TIP3 H2   HT            0.417         1.008       0
    2862 TIP3 874  TIP3 OH2  OT           -0.834       15.9994       0
    2863 TIP3 874  TIP3 H1   HT            0.417         1.008       0
    2864 TIP3 874  TIP3 H2   HT            0.417         1.008       0
    2865 TIP3 875  TIP3 OH2  OT           -0.834       15.9994       0
    2866 TIP3 875  TIP3 H1   HT            0.417         1.008       0
    2867 TIP3 875  TIP3 H2   HT            0.417         1.008       0
    2868 TIP3 876  TIP3 OH2  OT           -0.834       15.9994       0
    2869 TIP3 876  TIP3 H1   HT            0.417         1.008       0
    2870 TIP3 876  TIP3 H2   HT            0.417         1.008       0
    2871 TIP3 877  TIP3 OH2  OT           -0.834       15.9994       0
    2872 TIP3 877  TIP3 H1   HT            0.417         1.008       0
    2873 TIP3 877  TIP3 H2   HT            0.417         1.008       0
    2874 TIP3 878  TIP3 OH2  OT           -0.834       15.9994       0
    2875 TIP3 878  TIP3 H1   HT            0.417         1.008       0
    2876 TIP3 878  TIP3 H2   HT            0.417         1.008       0
    2877 TIP3 879  TIP3 OH2  OT           -0.834       15.9994       0
    2878 TIP3 879  TIP3 H1   HT            0.417         1.008       0
    2879 TIP3 879  TIP3 H2   HT            0.417         1.008       0
    2880 TIP3 880  TIP3 OH2  OT           -0.834       15.9994       0
    2881 TIP3 880  TIP3 H1   HT            0.417         1.008       0
    2882 TIP3 880  TIP3 H2   HT            0.417         1.008       0
    2883 TIP3 881  TIP3 OH2  OT           -0.834       15.9994       0
    2884 TIP3 881  TIP3 H1   HT            0.417         1.008       0
    2885 TIP3 881  TIP3 H2   HT            0.417         1.008       0
    2886 TIP3 882  TIP3 OH2  OT           -0.834       15.9994       0
    2887 TIP3 882  TIP3 H1   HT            0.417         1.008       0
    2888 TIP3 882  TIP3 H2   HT            0.417         1.008       0
    2889 TIP3 883  TIP3 OH2  OT           -0.834       15.9994       0
    2890 TIP3 883  TIP3 H1   HT            0.417         1.008       0
    2891 TIP3 883  TIP3 H2   HT            0.417         1.008       0
    2892 TIP3 884  TIP3 OH2  OT           -0.834       15.9994       0
    2893 TIP3 884  TIP3 H1   HT            0.417         1.008       0
    2894 TIP3 884  TIP3 H2   HT            0.417         1.008       0
    2895 TIP3 885  TIP3 OH2  OT           -0.834       15.9994       0
    2896 TIP3 885  TIP3 H1   HT            0.417         1.008       0
    2897 TIP3 885  TIP3 H2   HT            0.417         1.008       0
    2898 TIP3 886  TIP3 OH2  OT           -0.834       15.9994       0
    2899 TIP3 886  TIP3 H1   HT            0.417         1.008       0
    2900 TIP3 886  TIP3 H2   HT            0.417         1.008       0
    2901 TIP3 887  TIP3 OH2  OT           -0.834       15.9994       0
    2902 TIP3 887  TIP3 H1   HT            0.417         1.008       0
    2903 TIP3 887  TIP3 H2   HT            0.417         1.008       0
    2904 TIP3 888  TIP3 OH2  OT           -0.834       15.9994       0
    2905 TIP3 888  TIP3 H1   HT            0.417         1.008       0
    2906 TIP3 888  TIP3 H2   HT            0.417         1.008       0
    2907 TIP3 889  TIP3 OH2  OT           -0.834       15.9994       0
    2908 TIP3 889  TIP3 H1   HT            0.417         1.008       0
    2909 TIP3 889  TIP3 H2   HT            0.417         1.008       0
    2910 TIP3 890  TIP3 OH2  OT           -0.834       15.9994       0
    2911 TIP3 890  TIP3 H1   HT            0.417         1.008       0
    2912 TIP3 890  TIP3 H2   HT            0.417         1.008       0
    2913 TIP3 891  TIP3 OH2  OT           -0.834       15.9994       0
    2914 TIP3 891  TIP3 H1   HT            0.417         1.008       0
    2915 TIP3 891  TIP3 H2   HT            0.417         1.008       0
    2916 TIP3 892  TIP3 OH2  OT           -0.834       15.9994       0
    2917 TIP3 892  TIP3 H1   HT            0.417         1.008       0
    2918 TIP3 892  TIP3 H2   HT            0.417         1.008       0
    2919 TIP3 893  TIP3 OH2  OT           -0.834       15.9994       0
    2920 TIP3 893  TIP3 H1   HT            0.417         1.008       0
    2921 TIP3 893  TIP3 H2   HT            0.417         1.008       0
    2922 TIP3 894  TIP3 OH2  OT           -0.834       15.9994       0
    2923 TIP3 894  TIP3 H1   HT            0.417         1.008       0
    2924 TIP3 894  TIP3 H2   HT            0.417         1.008       0
    2925 TIP3 895  TIP3 OH2  OT           -0.834       15.9994       0
    2926 TIP3 895  TIP3 H1   HT            0.417         1.008       0
    2927 TIP3 895  TIP3 H2   HT            0.417         1.008       0
    2928 TIP3 896  TIP3 OH2  OT           -0.834       15.9994       0
    2929 TIP3 896  TIP3 H1   HT            0.417         1.008       0
    2930 TIP3 896  TIP3 H2   HT            0.417         1.008       0
    2931 TIP3 897  TIP3 OH2  OT           -0.834       15.9994       0
    2932 TIP3 897  TIP3 H1   HT            0.417         1.008       0
    2933 TIP3 897  TIP3 H2   HT            0.417         1.008       0
    2934 TIP3 898  TIP3 OH2  OT           -0.834       15.9994       0
    2935 TIP3 898  TIP3 H1   HT            0.417         1.008       0
    2936 TIP3 898  TIP3 H2   HT            0.417         1.008       0
    2937 TIP3 899  TIP3 OH2  OT           -0.834       15.9994       0
    2938 TIP3 899  TIP3 H1   HT            0.417         1.008       0
    2939 TIP3 899  TIP3 H2   HT            0.417         1.008       0
    2940 TIP3 900  TIP3 OH2  OT           -0.834       15.9994       0
    2941 TIP3 900  TIP3 H1   HT            0.417         1.008       0
    2942 TIP3 900  TIP3 H2   HT            0.417         1.008       0
    2943 TIP3 901  TIP3 OH2  OT           -0.834       15.9994       0
    2944 TIP3 901  TIP3 H1   HT            0.417         1.008       0
    2945 TIP3 901  TIP3 H2   HT            0.417         1.008       0
    2946 TIP3 902  TIP3 OH2  OT           -0.834       15.9994       0
    2947 TIP3 902  TIP3 H1   HT            0.417         1.008       0
    2948 TIP3 902  TIP3 H2   HT            0.417         1.008       0
    2949 TIP3 903  TIP3 OH2  OT           -0.834       15.9994       0
    2950 TIP3 903  TIP3 H1   HT            0.417         1.008       0
    2951 TIP3 903  TIP3 H2   HT            0.417         1.008       0
    2952 TIP3 904  TIP3 OH2  OT           -0.834       15.9994       0
    2953 TIP3 904  TIP3 H1   HT            0.417         1.008       0
    2954 TIP3 904  TIP3 H2   HT            0.417         1.008       0
    2955 TIP3 905  TIP3 OH2  OT           -0.834       15.9994       0
    2956 TIP3 905  TIP3 H1   HT            0.417         1.008       0
    2957 TIP3 905  TIP3 H2   HT            0.417         1.008       0
    2958 TIP3 906  TIP3 OH2  OT           -0.834       15.9994       0
    2959 TIP3 906  TIP3 H1   HT            0.417         1.008       0
    2960 TIP3 906  TIP3 H2   HT            0.417         1.008       0
    2961 TIP3 907  TIP3 OH2  OT           -0.834       15.9994       0
    2962 TIP3 907  TIP3 H1   HT            0.417         1.008       0
    2963 TIP3 907  TIP3 H2   HT            0.417         1.008       0
    2964 TIP3 908  TIP3 OH2  OT           -0.834       15.9994       0
    2965 TIP3 908  TIP3 H1   HT            0.417         1.008       0
    2966 TIP3 908  TIP3 H2   HT            0.417         1.008       0
    2967 TIP3 909  TIP3 OH2  OT           -0.834       15.9994       0
    2968 TIP3 909  TIP3 H1   HT            0.417         1.008       0
    2969 TIP3 909  TIP3 H2   HT            0.417         1.008       0
    2970 TIP3 910  TIP3 OH2  OT           -0.834       15.9994       0
    2971 TIP3 910  TIP3 H1   HT            0.417         1.008       0
    2972 TIP3 910  TIP3 H2   HT            0.417         1.008       0
    2973 TIP3 911  TIP3 OH2  OT           -0.834       15.9994       0
    2974 TIP3 911  TIP3 H1   HT            0.417         1.008       0
    2975 TIP3 911  TIP3 H2   HT            0.417         1.008       0
    2976 TIP3 912  TIP3 OH2  OT           -0.834       15.9994       0
    2977 TIP3 912  TIP3 H1   HT            0.417         1.008       0
    2978 TIP3 912  TIP3 H2   HT            0.417         1.008       0
    2979 TIP3 913  TIP3 OH2  OT           -0.834       15.9994       0
    2980 TIP3 913  TIP3 H1   HT            0.417         1.008       0
    2981 TIP3 913  TIP3 H2   HT            0.417         1.008       0
    2982 TIP3 914  TIP3 OH2  OT           -0.834       15.9994       0
    2983 TIP3 914  TIP3 H1   HT            0.417         1.008       0
    2984 TIP3 914  TIP3 H2   HT            0.417         1.008       0
    2985 TIP3 915  TIP3 OH2  OT           -0.834       15.9994       0
    2986 TIP3 915  TIP3 H1   HT            0.417         1.008       0
    2987 TIP3 915  TIP3 H2   HT            0.417         1.008       0
    2988 TIP3 916  TIP3 OH2  OT           -0.834       15.9994       0
    2989 TIP3 916  TIP3 H1   HT            0.417         1.008       0
    2990 TIP3 916  TIP3 H2   HT            0.417         1.008       0
    2991 TIP3 917  TIP3 OH2  OT           -0.834       15.9994       0
    2992 TIP3 917  TIP3 H1   HT            0.417         1.008       0
    2993 TIP3 917  TIP3 H2   HT            0.417         1.008       0
    2994 TIP3 918  TIP3 OH2  OT           -0.834       15.9994       0
    2995 TIP3 918  TIP3 H1   HT            0.417         1.008       0
    2996 TIP3 918  TIP3 H2   HT            0.417         1.008       0
    2997 TIP3 919  TIP3 OH2  OT           -0.834       15.9994       0
    2998 TIP3 919  TIP3 H1   HT            0.417         1.008       0
    2999 TIP3 919  TIP3 H2   HT            0.417         1.008       0
    3000 TIP3 920  TIP3 OH2  OT           -0.834       15.9994       0
    3001 TIP3 920  TIP3 H1   HT            0.417         1.008       0
    3002 TIP3 920  TIP3 H2   HT            0.417         1.008       0
    3003 TIP3 921  TIP3 OH2  OT           -0.834       15.9994       0
    3004 TIP3 921  TIP3 H1   HT            0.417         1.008       0
    3005 TIP3 921  TIP3 H2   HT            0.417         1.008       0
    3006 TIP3 922  TIP3 OH2  OT           -0.834       15.9994       0
    3007 TIP3 922  TIP3 H1   HT            0.417         1.008       0
    3008 TIP3 922  TIP3 H2   HT            0.417         1.008       0
    3009 TIP3 923  TIP3 OH2  OT           -0.834       15.9994       0
    3010 TIP3 923  TIP3 H1   HT            0.417         1.008       0
    3011 TIP3 923  TIP3 H2   HT            0.417         1.008       0
    3012 TIP3 924  TIP3 OH2  OT           -0.834       15.9994       0
    3013 TIP3 924  TIP3 H1   HT            0.417         1.008       0
    3014 TIP3 924  TIP3 H2   HT            0.417         1.008       0
    3015 TIP3 925  TIP3 OH2  OT           -0.834       15.9994       0
    3016 TIP3 925  TIP3 H1   HT            0.417         1.008       0
    3017 TIP3 925  TIP3 H2   HT            0.417         1.008       0
    3018 TIP3 926  TIP3 OH2  OT           -0.834       15.9994       0
    3019 TIP3 926  TIP3 H1   HT            0.417         1.008       0
    3020 TIP3 926  TIP3 H2   HT            0.417         1.008       0
    3021 TIP3 927  TIP3 OH2  OT           -0.834       15.9994       0
    3022 TIP3 927  TIP3 H1   HT            0.417         1.008       0
    3023 TIP3 927  TIP3 H2   HT            0.417         1.008       0
    3024 TIP3 928  TIP3 OH2  OT           -0.834       15.9994       0
    3025 TIP3 928  TIP3 H1   HT            0.417         1.008       0
    3026 TIP3 928  TIP3 H2   HT            0.417         1.008       0
    3027 TIP3 929  TIP3 OH2  OT           -0.834       15.9994       0
    3028 TIP3 929  TIP3 H1   HT            0.417         1.008       0
    3029 TIP3 929  TIP3 H2   HT            0.417         1.008       0
    3030 TIP3 930  TIP3 OH2  OT           -0.834       15.9994       0
    3031 TIP3 930  TIP3 H1   HT            0.417         1.008       0
    3032 TIP3 930  TIP3 H2   HT            0.417         1.008       0
    3033 TIP3 931  TIP3 OH2  OT           -0.834       15.9994       0
    3034 TIP3 931  TIP3 H1   HT            0.417         1.008       0
    3035 TIP3 931  TIP3 H2   HT            0.417         1.008       0
    3036 TIP3 932  TIP3 OH2  OT           -0.834       15.9994       0
    3037 TIP3 932  TIP3 H1   HT            0.417         1.008       0
    3038 TIP3 932  TIP3 H2   HT            0.417         1.008       0
    3039 TIP3 933  TIP3 OH2  OT           -0.834       15.9994       0
    3040 TIP3 933  TIP3 H1   HT            0.417         1.008       0
    3041 TIP3 933  TIP3 H2   HT            0.417         1.008       0
    3042 TIP3 934  TIP3 OH2  OT           -0.834       15.9994       0
    3043 TIP3 934  TIP3 H1   HT            0.417         1.008       0
    3044 TIP3 934  TIP3 H2   HT            0.417         1.008       0
    3045 TIP3 935  TIP3 OH2  OT           -0.834       15.9994       0
    3046 TIP3 935  TIP3 H1   HT            0.417         1.008       0
    3047 TIP3 935  TIP3 H2   HT            0.417         1.008       0
    3048 TIP3 936  TIP3 OH2  OT           -0.834       15.9994       0
    3049 TIP3 936  TIP3 H1   HT            0.417         1.008       0
    3050 TIP3 936  TIP3 H2   HT            0.417         1.008       0
    3051 TIP3 937  TIP3 OH2  OT           -0.834       15.9994       0
    3052 TIP3 937  TIP3 H1   HT            0.417         1.008       0
    3053 TIP3 937  TIP3 H2   HT            0.417         1.008       0
    3054 TIP3 938  TIP3 OH2  OT           -0.834       15.9994       0
    3055 TIP3 938  TIP3 H1   HT            0.417         1.008       0
    3056 TIP3 938  TIP3 H2   HT            0.417         1.008       0
    3057 TIP3 939  TIP3 OH2  OT           -0.834       15.9994       0
    3058 TIP3 939  TIP3 H1   HT            0.417         1.008       0
    3059 TIP3 939  TIP3 H2   HT            0.417         1.008       0
    3060 TIP3 940  TIP3 OH2  OT           -0.834       15.9994       0
    3061 TIP3 940  TIP3 H1   HT            0.417         1.008       0
    3062 TIP3 940  TIP3 H2   HT            0.417         1.008       0
    3063 TIP3 941  TIP3 OH2  OT           -0.834       15.9994       0
    3064 TIP3 941  TIP3 H1   HT            0.417         1.008       0
    3065 TIP3 941  TIP3 H2   HT            0.417         1.008       0
    3066 TIP3 942  TIP3 OH2  OT           -0.834       15.9994       0
    3067 TIP3 942  TIP3 H1   HT            0.417         1.008       0
    3068 TIP3 942  TIP3 H2   HT            0.417         1.008       0
    3069 TIP3 943  TIP3 OH2  OT           -0.834       15.9994       0
    3070 TIP3 943  TIP3 H1   HT            0.417         1.008       0
    3071 TIP3 943  TIP3 H2   HT            0.417         1.008       0
    3072 TIP3 944  TIP3 OH2  OT           -0.834       15.9994       0
    3073 TIP3 944  TIP3 H1   HT            0.417         1.008       0
    3074 TIP3 944  TIP3 H2   HT            0.417         1.008       0
    3075 TIP3 945  TIP3 OH2  OT           -0.834       15.9994       0
    3076 TIP3 945  TIP3 H1   HT            0.417         1.008       0
    3077 TIP3 945  TIP3 H2   HT            0.417         1.008       0
    3078 TIP3 946  TIP3 OH2  OT           -0.834       15.9994       0
    3079 TIP3 946  TIP3 H1   HT            0.417         1.008       0
    3080 TIP3 946  TIP3 H2   HT            0.417         1.008       0
    3081 TIP3 947  TIP3 OH2  OT           -0.834       15.9994       0
    3082 TIP3 947  TIP3 H1   HT            0.417         1.008       0
    3083 TIP3 947  TIP3 H2   HT            0.417         1.008       0
    3084 TIP3 948  TIP3 OH2  OT           -0.834       15.9994       0
    3085 TIP3 948  TIP3 H1   HT            0.417         1.008       0
    3086 TIP3 948  TIP3 H2   HT            0.417         1.008       0
    3087 TIP3 949  TIP3 OH2  OT           -0.834       15.9994       0
    3088 TIP3 949  TIP3 H1   HT            0.417         1.008       0
    3089 TIP3 949  TIP3 H2   HT            0.417         1.008       0
    3090 TIP3 950  TIP3 OH2  OT           -0.834       15.9994       0
    3091 TIP3 950  TIP3 H1   HT            0.417         1.008       0
    3092 TIP3 950  TIP3 H2   HT            0.417         1.008       0
    3093 TIP3 951  TIP3 OH2  OT           -0.834       15.9994       0
    3094 TIP3 951  TIP3 H1   HT            0.417         1.008       0
    3095 TIP3 951  TIP3 H2   HT            0.417         1.008       0
    3096 TIP3 952  TIP3 OH2  OT           -0.834       15.9994       0
    3097 TIP3 952  TIP3 H1   HT            0.417         1.008       0
    3098 TIP3 952  TIP3 H2   HT            0.417         1.008       0
    3099 TIP3 953  TIP3 OH2  OT           -0.834       15.9994       0
    3100 TIP3 953  TIP3 H1   HT            0.417         1.008       0
    3101 TIP3 953  TIP3 H2   HT            0.417         1.008       0
    3102 TIP3 954  TIP3 OH2  OT           -0.834       15.9994       0
    3103 TIP3 954  TIP3 H1   HT            0.417         1.008       0
    3104 TIP3 954  TIP3 H2   HT            0.417         1.008       0
    3105 TIP3 955  TIP3 OH2  OT           -0.834       15.9994       0
    3106 TIP3 955  TIP3 H1   HT            0.417         1.008       0
    3107 TIP3 955  TIP3 H2   HT            0.417         1.008       0
    3108 TIP3 956  TIP3 OH2  OT           -0.834       15.9994       0
    3109 TIP3 956  TIP3 H1   HT            0.417         1.008       0
    3110 TIP3 956  TIP3 H2   HT            0.417         1.008       0
    3111 TIP3 957  TIP3 OH2  OT           -0.834       15.9994       0
    3112 TIP3 957  TIP3 H1   HT            0.417         1.008       0
    3113 TIP3 957  TIP3 H2   HT            0.417         1.008       0
    3114 TIP3 958  TIP3 OH2  OT           -0.834       15.9994       0
    3115 TIP3 958  TIP3 H1   HT            0.417         1.008       0
    3116 TIP3 958  TIP3 H2   HT            0.417         1.008       0
    3117 TIP3 959  TIP3 OH2  OT           -0.834       15.9994       0
    3118 TIP3 959  TIP3 H1   HT            0.417         1.008       0
    3119 TIP3 959  TIP3 H2   HT            0.417         1.008       0
    3120 TIP3 960  TIP3 OH2  OT           -0.834       15.9994       0
    3121 TIP3 960  TIP3 H1   HT            0.417         1.008       0
    3122 TIP3 960  TIP3 H2   HT            0.417         1.008       0
    3123 TIP3 961  TIP3 OH2  OT           -0.834       15.9994       0
    3124 TIP3 961  TIP3 H1   HT            0.417         1.008       0
    3125 TIP3 961  TIP3 H2   HT            0.417         1.008       0
    3126 TIP3 962  TIP3 OH2  OT           -0.834       15.9994       0
    3127 TIP3 962  TIP3 H1   HT            0.417         1.008       0
    3128 TIP3 962  TIP3 H2   HT            0.417         1.008       0
    3129 TIP3 963  TIP3 OH2  OT           -0.834       15.9994       0
    3130 TIP3 963  TIP3 H1   HT            0.417         1.008       0
    3131 TIP3 963  TIP3 H2   HT            0.417         1.008       0
    3132 TIP3 964  TIP3 OH2  OT           -0.834       15.9994       0
    3133 TIP3 964  TIP3 H1   HT            0.417         1.008       0
    3134 TIP3 964  TIP3 H2   HT            0.417         1.008       0
    3135 TIP3 965  TIP3 OH2  OT           -0.834       15.9994       0
    3136 TIP3 965  TIP3 H1   HT            0.417         1.008       0
    3137 TIP3 965  TIP3 H2   HT            0.417         1.008       0
    3138 TIP3 966  TIP3 OH2  OT           -0.834       15.9994       0
    3139 TIP3 966  TIP3 H1   HT            0.417         1.008       0
    3140 TIP3 966  TIP3 H2   HT            0.417         1.008       0
    3141 TIP3 967  TIP3 OH2  OT           -0.834       15.9994       0
    3142 TIP3 967  TIP3 H1   HT            0.417         1.008       0
    3143 TIP3 967  TIP3 H2   HT            0.417         1.008       0
    3144 TIP3 968  TIP3 OH2  OT           -0.834       15.9994       0
    3145 TIP3 968  TIP3 H1   HT            0.417         1.008       0
    3146 TIP3 968  TIP3 H2   HT            0.417         1.008       0
    3147 TIP3 969  TIP3 OH2  OT           -0.834       15.9994       0
    3148 TIP3 969  TIP3 H1   HT            0.417         1.008       0
    3149 TIP3 969  TIP3 H2   HT            0.417         1.008       0
    3150 TIP3 970  TIP3 OH2  OT           -0.834       15.9994       0
    3151 TIP3 970  TIP3 H1   HT            0.417         1.008       0
    3152 TIP3 970  TIP3 H2   HT            0.417         1.008       0
    3153 TIP3 971  TIP3 OH2  OT           -0.834       15.9994       0
    3154 TIP3 971  TIP3 H1   HT            0.417         1.008       0
    3155 TIP3 971  TIP3 H2   HT            0.417         1.008       0
    3156 TIP3 972  TIP3 OH2  OT           -0.834       15.9994       0
    3157 TIP3 972  TIP3 H1   HT            0.417         1.008       0
    3158 TIP3 972  TIP3 H2   HT            0.417         1.008       0
    3159 TIP3 973  TIP3 OH2  OT           -0.834       15.9994       0
    3160 TIP3 973  TIP3 H1   HT            0.417         1.008       0
    3161 TIP3 973  TIP3 H2   HT            0.417         1.008       0
    3162 TIP3 974  TIP3 OH2  OT           -0.834       15.9994       0
    3163 TIP3 974  TIP3 H1   HT            0.417         1.008       0
    3164 TIP3 974  TIP3 H2   HT            0.417         1.008       0
    3165 TIP3 975  TIP3 OH2  OT           -0.834       15.9994       0
    3166 TIP3 975  TIP3 H1   HT            0.417         1.008       0
    3167 TIP3 975  TIP3 H2   HT            0.417         1.008       0
    3168 TIP3 976  TIP3 OH2  OT           -0.834       15.9994       0
    3169 TIP3 976  TIP3 H1   HT            0.417         1.008       0
    3170 TIP3 976  TIP3 H2   HT            0.417         1.008       0
    3171 TIP3 977  TIP3 OH2  OT           -0.834       15.9994       0
    3172 TIP3 977  TIP3 H1   HT            0.417         1.008       0
    3173 TIP3 977  TIP3 H2   HT            0.417         1.008       0
    3174 TIP3 978  TIP3 OH2  OT           -0.834       15.9994       0
    3175 TIP3 978  TIP3 H1   HT            0.417         1.008       0
    3176 TIP3 978  TIP3 H2   HT            0.417         1.008       0
    3177 TIP3 979  TIP3 OH2  OT           -0.834       15.9994       0
    3178 TIP3 979  TIP3 H1   HT            0.417         1.008       0
    3179 TIP3 979  TIP3 H2   HT            0.417         1.008       0
    3180 TIP3 980  TIP3 OH2  OT           -0.834       15.9994       0
    3181 TIP3 980  TIP3 H1   HT            0.417         1.008       0
    3182 TIP3 980  TIP3 H2   HT            0.417         1.008       0
    3183 TIP3 981  TIP3 OH2  OT           -0.834       15.9994       0
    3184 TIP3 981  TIP3 H1   HT            0.417         1.008       0
    3185 TIP3 981  TIP3 H2   HT            0.417         1.008       0
    3186 TIP3 982  TIP3 OH2  OT           -0.834       15.9994       0
    3187 TIP3 982  TIP3 H1   HT            0.417         1.008       0
    3188 TIP3 982  TIP3 H2   HT            0.417         1.008       0
    3189 TIP3 983  TIP3 OH2  OT           -0.834       15.9994       0
    3190 TIP3 983  TIP3 H1   HT            0.417         1.008       0
    3191 TIP3 983  TIP3 H2   HT            0.417         1.008       0
    3192 TIP3 984  TIP3 OH2  OT           -0.834       15.9994       0
    3193 TIP3 984  TIP3 H1   HT            0.417         1.008       0
    3194 TIP3 984  TIP3 H2   HT            0.417         1.008       0
    3195 TIP3 985  TIP3 OH2  OT           -0.834       15.9994       0
    3196 TIP3 985  TIP3 H1   HT            0.417         1.008       0
    3197 TIP3 985  TIP3 H2   HT            0.417         1.008       0
    3198 TIP3 986  TIP3 OH2  OT           -0.834       15.9994       0
    3199 TIP3 986  TIP3 H1   HT            0.417         1.008       0
    3200 TIP3 986  TIP3 H2   HT            0.417         1.008       0
    3201 TIP3 987  TIP3 OH2  OT           -0.834       15.9994       0
    3202 TIP3 987  TIP3 H1   HT            0.417         1.008       0
    3203 TIP3 987  TIP3 H2   HT            0.417         1.008       0
    3204 TIP3 988  TIP3 OH2  OT           -0.834       15.9994       0
    3205 TIP3 988  TIP3 H1   HT            0.417         1.008       0
    3206 TIP3 988  TIP3 H2   HT            0.417         1.008       0
    3207 TIP3 989  TIP3 OH2  OT           -0.834       15.9994       0
    3208 TIP3 989  TIP3 H1   HT            0.417         1.008       0
    3209 TIP3 989  TIP3 H2   HT            0.417         1.008       0
    3210 TIP3 990  TIP3 OH2  OT           -0.834       15.9994       0
    3211 TIP3 990  TIP3 H1   HT            0.417         1.008       0
    3212 TIP3 990  TIP3 H2   HT            0.417         1.008       0
    3213 TIP3 991  TIP3 OH2  OT           -0.834       15.9994       0
    3214 TIP3 991  TIP3 H1   HT            0.417         1.008       0
    3215 TIP3 991  TIP3 H2   HT            0.417         1.008       0
    3216 TIP3 992  TIP3 OH2  OT           -0.834       15.9994       0
    3217 TIP3 992  TIP3 H1   HT            0.417         1.008       0
    3218 TIP3 992  TIP3 H2   HT            0.417         1.008       0
    3219 TIP3 993  TIP3 OH2  OT           -0.834       15.9994       0
    3220 TIP3 993  TIP3 H1   HT            0.417         1.008       0
    3221 TIP3 993  TIP3 H2   HT            0.417         1.008       0
    3222 TIP3 994  TIP3 OH2  OT           -0.834       15.9994       0
    3223 TIP3 994  TIP3 H1   HT            0.417         1.008       0
    3224 TIP3 994  TIP3 H2   HT            0.417         1.008       0
    3225 TIP3 995  TIP3 OH2  OT           -0.834       15.9994       0
    3226 TIP3 995  TIP3 H1   HT            0.417         1.008       0
    3227 TIP3 995  TIP3 H2   HT            0.417         1.008       0
    3228 TIP3 996  TIP3 OH2  OT           -0.834       15.9994       0
    3229 TIP3 996  TIP3 H1   HT            0.417         1.008       0
    3230 TIP3 996  TIP3 H2   HT            0.417         1.008       0
    3231 TIP3 997  TIP3 OH2  OT           -0.834       15.9994       0
    3232 TIP3 997  TIP3 H1   HT            0.417         1.008       0
    3233 TIP3 997  TIP3 H2   HT            0.417         1.008       0
    3234 TIP3 998  TIP3 OH2  OT           -0.834       15.9994       0
    3235 TIP3 998  TIP3 H1   HT            0.417         1.008       0
    3236 TIP3 998  TIP3 H2   HT            0.417         1.008       0
    3237 TIP3 999  TIP3 OH2  OT           -0.834       15.9994       0
    3238 TIP3 999  TIP3 H1   HT            0.417         1.008       0
    3239 TIP3 999  TIP3 H2   HT            0.417         1.008       0
    3240 TIP3 1000 TIP3 OH2  OT           -0.834       15.9994       0
    3241 TIP3 1000 TIP3 H1   HT            0.417         1.008       0
    3242 TIP3 1000 TIP3 H2   HT            0.417         1.008       0
    3243 TIP3 1001 TIP3 OH2  OT           -0.834       15.9994       0
    3244 TIP3 1001 TIP3 H1   HT            0.417         1.008       0
    3245 TIP3 1001 TIP3 H2   HT            0.417         1.008       0
    3246 TIP3 1002 TIP3 OH2  OT           -0.834       15.9994       0
    3247 TIP3 1002 TIP3 H1   HT            0.417         1.008       0
    3248 TIP3 1002 TIP3 H2   HT            0.417         1.008       0
    3249 TIP3 1003 TIP3 OH2  OT           -0.834       15.9994       0
    3250 TIP3 1003 TIP3 H1   HT            0.417         1.008       0
    3251 TIP3 1003 TIP3 H2   HT            0.417         1.008       0
    3252 TIP3 1004 TIP3 OH2  OT           -0.834       15.9994       0
    3253 TIP3 1004 TIP3 H1   HT            0.417         1.008       0
    3254 TIP3 1004 TIP3 H2   HT            0.417         1.008       0
    3255 TIP3 1005 TIP3 OH2  OT           -0.834       15.9994       0
    3256 TIP3 1005 TIP3 H1   HT            0.417         1.008       0
    3257 TIP3 1005 TIP3 H2   HT            0.417         1.008       0
    3258 TIP3 1006 TIP3 OH2  OT           -0.834       15.9994       0
    3259 TIP3 1006 TIP3 H1   HT            0.417         1.008       0
    3260 TIP3 1006 TIP3 H2   HT            0.417         1.008       0
    3261 TIP3 1007 TIP3 OH2  OT           -0.834       15.9994       0
    3262 TIP3 1007 TIP3 H1   HT            0.417         1.008       0
    3263 TIP3 1007 TIP3 H2   HT            0.417         1.008       0
    3264 TIP3 1008 TIP3 OH2  OT           -0.834       15.9994       0
    3265 TIP3 1008 TIP3 H1   HT            0.417         1.008       0
    3266 TIP3 1008 TIP3 H2   HT            0.417         1.008       0
    3267 TIP3 1009 TIP3 OH2  OT           -0.834       15.9994       0
    3268 TIP3 1009 TIP3 H1   HT            0.417         1.008       0
    3269 TIP3 1009 TIP3 H2   HT            0.417         1.008       0
    3270 TIP3 1010 TIP3 OH2  OT           -0.834       15.9994       0
    3271 TIP3 1010 TIP3 H1   HT            0.417         1.008       0
    3272 TIP3 1010 TIP3 H2   HT            0.417         1.008       0
    3273 TIP3 1011 TIP3 OH2  OT           -0.834       15.9994       0
    3274 TIP3 1011 TIP3 H1   HT            0.417         1.008       0
    3275 TIP3 1011 TIP3 H2   HT            0.417         1.008       0
    3276 TIP3 1012 TIP3 OH2  OT           -0.834       15.9994       0
    3277 TIP3 1012 TIP3 H1   HT            0.417         1.008       0
    3278 TIP3 1012 TIP3 H2   HT            0.417         1.008       0
    3279 TIP3 1013 TIP3 OH2  OT           -0.834       15.9994       0
    3280 TIP3 1013 TIP3 H1   HT            0.417         1.008       0
    3281 TIP3 1013 TIP3 H2   HT            0.417         1.008       0
    3282 TIP3 1014 TIP3 OH2  OT           -0.834       15.9994       0
    3283 TIP3 1014 TIP3 H1   HT            0.417         1.008       0
    3284 TIP3 1014 TIP3 H2   HT            0.417         1.008       0
    3285 TIP3 1015 TIP3 OH2  OT           -0.834       15.9994       0
    3286 TIP3 1015 TIP3 H1   HT            0.417         1.008       0
    3287 TIP3 1015 TIP3 H2   HT            0.417         1.008       0
    3288 TIP3 1016 TIP3 OH2  OT           -0.834       15.9994       0
    3289 TIP3 1016 TIP3 H1   HT            0.417         1.008       0
    3290 TIP3 1016 TIP3 H2   HT            0.417         1.008       0
    3291 TIP3 1017 TIP3 OH2  OT           -0.834       15.9994       0
    3292 TIP3 1017 TIP3 H1   HT            0.417         1.008       0
    3293 TIP3 1017 TIP3 H2   HT            0.417         1.008       0
    3294 TIP3 1018 TIP3 OH2  OT           -0.834       15.9994       0
    3295 TIP3 1018 TIP3 H1   HT            0.417         1.008       0
    3296 TIP3 1018 TIP3 H2   HT            0.417         1.008       0
    3297 TIP3 1019 TIP3 OH2  OT           -0.834       15.9994       0
    3298 TIP3 1019 TIP3 H1   HT            0.417         1.008       0
    3299 TIP3 1019 TIP3 H2   HT            0.417         1.008       0
    3300 TIP3 1020 TIP3 OH2  OT           -0.834       15.9994       0
    3301 TIP3 1020 TIP3 H1   HT            0.417         1.008       0
    3302 TIP3 1020 TIP3 H2   HT            0.417         1.008       0
    3303 TIP3 1021 TIP3 OH2  OT           -0.834       15.9994       0
    3304 TIP3 1021 TIP3 H1   HT            0.417         1.008       0
    3305 TIP3 1021 TIP3 H2   HT            0.417         1.008       0
    3306 TIP3 1022 TIP3 OH2  OT           -0.834       15.9994       0
    3307 TIP3 1022 TIP3 H1   HT            0.417         1.008       0
    3308 TIP3 1022 TIP3 H2   HT            0.417         1.008       0
    3309 TIP3 1023 TIP3 OH2  OT           -0.834       15.9994       0
    3310 TIP3 1023 TIP3 H1   HT            0.417         1.008       0
    3311 TIP3 1023 TIP3 H2   HT            0.417         1.008       0
    3312 TIP3 1024 TIP3 OH2  OT           -0.834       15.9994       0
    3313 TIP3 1024 TIP3 H1   HT            0.417         1.008       0
    3314 TIP3 1024 TIP3 H2   HT            0.417         1.008       0
    3315 TIP3 1025 TIP3 OH2  OT           -0.834       15.9994       0
    3316 TIP3 1025 TIP3 H1   HT            0.417         1.008       0
    3317 TIP3 1025 TIP3 H2   HT            0.417         1.008       0
    3318 TIP3 1026 TIP3 OH2  OT           -0.834       15.9994       0
    3319 TIP3 1026 TIP3 H1   HT            0.417         1.008       0
    3320 TIP3 1026 TIP3 H2   HT            0.417         1.008       0
    3321 TIP3 1027 TIP3 OH2  OT           -0.834       15.9994       0
    3322 TIP3 1027 TIP3 H1   HT            0.417         1.008       0
    3323 TIP3 1027 TIP3 H2   HT            0.417         1.008       0
    3324 TIP3 1028 TIP3 OH2  OT           -0.834       15.9994       0
    3325 TIP3 1028 TIP3 H1   HT            0.417         1.008       0
    3326 TIP3 1028 TIP3 H2   HT            0.417         1.008       0
    3327 TIP3 1029 TIP3 OH2  OT           -0.834       15.9994       0
    3328 TIP3 1029 TIP3 H1   HT            0.417         1.008       0
    3329 TIP3 1029 TIP3 H2   HT            0.417         1.008       0
    3330 TIP3 1030 TIP3 OH2  OT           -0.834       15.9994       0
    3331 TIP3 1030 TIP3 H1   HT            0.417         1.008       0
    3332 TIP3 1030 TIP3 H2   HT            0.417         1.008       0
    3333 TIP3 1031 TIP3 OH2  OT           -0.834       15.9994       0
    3334 TIP3 1031 TIP3 H1   HT            0.417         1.008       0
    3335 TIP3 1031 TIP3 H2   HT            0.417         1.008       0
    3336 TIP3 1032 TIP3 OH2  OT           -0.834       15.9994       0
    3337 TIP3 1032 TIP3 H1   HT            0.417         1.008       0
    3338 TIP3 1032 TIP3 H2   HT            0.417         1.008       0
    3339 TIP3 1033 TIP3 OH2  OT           -0.834       15.9994       0
    3340 TIP3 1033 TIP3 H1   HT            0.417         1.008       0
    3341 TIP3 1033 TIP3 H2   HT            0.417         1.008       0
    3342 TIP3 1034 TIP3 OH2  OT           -0.834       15.9994       0
    3343 TIP3 1034 TIP3 H1   HT            0.417         1.008       0
    3344 TIP3 1034 TIP3 H2   HT            0.417         1.008       0
    3345 TIP3 1035 TIP3 OH2  OT           -0.834       15.9994       0
    3346 TIP3 1035 TIP3 H1   HT            0.417         1.008       0
    3347 TIP3 1035 TIP3 H2   HT            0.417         1.008       0
    3348 TIP3 1036 TIP3 OH2  OT           -0.834       15.9994       0
    3349 TIP3 1036 TIP3 H1   HT            0.417         1.008       0
    3350 TIP3 1036 TIP3 H2   HT            0.417         1.008       0
    3351 TIP3 1037 TIP3 OH2  OT           -0.834       15.9994       0
    3352 TIP3 1037 TIP3 H1   HT            0.417         1.008       0
    3353 TIP3 1037 TIP3 H2   HT            0.417         1.008       0
    3354 TIP3 1038 TIP3 OH2  OT           -0.834       15.9994       0
    3355 TIP3 1038 TIP3 H1   HT            0.417         1.008       0
    3356 TIP3 1038 TIP3 H2   HT            0.417         1.008       0
    3357 TIP3 1039 TIP3 OH2  OT           -0.834       15.9994       0
    3358 TIP3 1039 TIP3 H1   HT            0.417         1.008       0
    3359 TIP3 1039 TIP3 H2   HT            0.417         1.008       0
    3360 TIP3 1040 TIP3 OH2  OT           -0.834       15.9994       0
    3361 TIP3 1040 TIP3 H1   HT            0.417         1.008       0
    3362 TIP3 1040 TIP3 H2   HT            0.417         1.008       0
    3363 TIP3 1041 TIP3 OH2  OT           -0.834       15.9994       0
    3364 TIP3 1041 TIP3 H1   HT            0.417         1.008       0
    3365 TIP3 1041 TIP3 H2   HT            0.417         1.008       0
    3366 TIP3 1042 TIP3 OH2  OT           -0.834       15.9994       0
    3367 TIP3 1042 TIP3 H1   HT            0.417         1.008       0
    3368 TIP3 1042 TIP3 H2   HT            0.417         1.008       0
    3369 TIP3 1043 TIP3 OH2  OT           -0.834       15.9994       0
    3370 TIP3 1043 TIP3 H1   HT            0.417         1.008       0
    3371 TIP3 1043 TIP3 H2   HT            0.417         1.008       0
    3372 TIP3 1044 TIP3 OH2  OT           -0.834       15.9994       0
    3373 TIP3 1044 TIP3 H1   HT            0.417         1.008       0
    3374 TIP3 1044 TIP3 H2   HT            0.417         1.008       0
    3375 TIP3 1045 TIP3 OH2  OT           -0.834       15.9994       0
    3376 TIP3 1045 TIP3 H1   HT            0.417         1.008       0
    3377 TIP3 1045 TIP3 H2   HT            0.417         1.008       0
    3378 TIP3 1046 TIP3 OH2  OT           -0.834       15.9994       0
    3379 TIP3 1046 TIP3 H1   HT            0.417         1.008       0
    3380 TIP3 1046 TIP3 H2   HT            0.417         1.008       0
    3381 TIP3 1047 TIP3 OH2  OT           -0.834       15.9994       0
    3382 TIP3 1047 TIP3 H1   HT            0.417         1.008       0
    3383 TIP3 1047 TIP3 H2   HT            0.417         1.008       0
    3384 TIP3 1048 TIP3 OH2  OT           -0.834       15.9994       0
    3385 TIP3 1048 TIP3 H1   HT            0.417         1.008       0
    3386 TIP3 1048 TIP3 H2   HT            0.417         1.008       0
    3387 TIP3 1049 TIP3 OH2  OT           -0.834       15.9994       0
    3388 TIP3 1049 TIP3 H1   HT            0.417         1.008       0
    3389 TIP3 1049 TIP3 H2   HT            0.417         1.008       0
    3390 TIP3 1050 TIP3 OH2  OT           -0.834       15.9994       0
    3391 TIP3 1050 TIP3 H1   HT            0.417         1.008       0
    3392 TIP3 1050 TIP3 H2   HT            0.417         1.008       0
    3393 TIP3 1051 TIP3 OH2  OT           -0.834       15.9994       0
    3394 TIP3 1051 TIP3 H1   HT            0.417         1.008       0
    3395 TIP3 1051 TIP3 H2   HT            0.417         1.008       0
    3396 TIP3 1052 TIP3 OH2  OT           -0.834       15.9994       0
    3397 TIP3 1052 TIP3 H1   HT            0.417         1.008       0
    3398 TIP3 1052 TIP3 H2   HT            0.417         1.008       0
    3399 TIP3 1053 TIP3 OH2  OT           -0.834       15.9994       0
    3400 TIP3 1053 TIP3 H1   HT            0.417         1.008       0
    3401 TIP3 1053 TIP3 H2   HT            0.417         1.008       0
    3402 TIP3 1054 TIP3 OH2  OT           -0.834       15.9994       0
    3403 TIP3 1054 TIP3 H1   HT            0.417         1.008       0
    3404 TIP3 1054 TIP3 H2   HT            0.417         1.008       0
    3405 TIP3 1055 TIP3 OH2  OT           -0.834       15.9994       0
    3406 TIP3 1055 TIP3 H1   HT            0.417         1.008       0
    3407 TIP3 1055 TIP3 H2   HT            0.417         1.008       0
    3408 TIP3 1056 TIP3 OH2  OT           -0.834       15.9994       0
    3409 TIP3 1056 TIP3 H1   HT            0.417         1.008       0
    3410 TIP3 1056 TIP3 H2   HT            0.417         1.008       0
    3411 TIP3 1057 TIP3 OH2  OT           -0.834       15.9994       0
    3412 TIP3 1057 TIP3 H1   HT            0.417         1.008       0
    3413 TIP3 1057 TIP3 H2   HT            0.417         1.008       0
    3414 TIP3 1058 TIP3 OH2  OT           -0.834       15.9994       0
    3415 TIP3 1058 TIP3 H1   HT            0.417         1.008       0
    3416 TIP3 1058 TIP3 H2   HT            0.417         1.008       0
    3417 TIP3 1059 TIP3 OH2  OT           -0.834       15.9994       0
    3418 TIP3 1059 TIP3 H1   HT            0.417         1.008       0
    3419 TIP3 1059 TIP3 H2   HT            0.417         1.008       0
    3420 TIP3 1060 TIP3 OH2  OT           -0.834       15.9994       0
    3421 TIP3 1060 TIP3 H1   HT            0.417         1.008       0
    3422 TIP3 1060 TIP3 H2   HT            0.417         1.008       0
    3423 TIP3 1061 TIP3 OH2  OT           -0.834       15.9994       0
    3424 TIP3 1061 TIP3 H1   HT            0.417         1.008       0
    3425 TIP3 1061 TIP3 H2   HT            0.417         1.008       0
    3426 TIP3 1062 TIP3 OH2  OT           -0.834       15.9994       0
    3427 TIP3 1062 TIP3 H1   HT            0.417         1.008       0
    3428 TIP3 1062 TIP3 H2   HT            0.417         1.008       0
    3429 TIP3 1063 TIP3 OH2  OT           -0.834       15.9994       0
    3430 TIP3 1063 TIP3 H1   HT            0.417         1.008       0
    3431 TIP3 1063 TIP3 H2   HT            0.417         1.008       0
    3432 TIP3 1064 TIP3 OH2  OT           -0.834       15.9994       0
    3433 TIP3 1064 TIP3 H1   HT            0.417         1.008       0
    3434 TIP3 1064 TIP3 H2   HT            0.417         1.008       0
    3435 TIP3 1065 TIP3 OH2  OT           -0.834       15.9994       0
    3436 TIP3 1065 TIP3 H1   HT            0.417         1.008       0
    3437 TIP3 1065 TIP3 H2   HT            0.417         1.008       0
    3438 TIP3 1066 TIP3 OH2  OT           -0.834       15.9994       0
    3439 TIP3 1066 TIP3 H1   HT            0.417         1.008       0
    3440 TIP3 1066 TIP3 H2   HT            0.417         1.008       0
    3441 TIP3 1067 TIP3 OH2  OT           -0.834       15.9994       0
    3442 TIP3 1067 TIP3 H1   HT            0.417         1.008       0
    3443 TIP3 1067 TIP3 H2   HT            0.417         1.008       0
    3444 TIP3 1068 TIP3 OH2  OT           -0.834       15.9994       0
    3445 TIP3 1068 TIP3 H1   HT            0.417         1.008       0
    3446 TIP3 1068 TIP3 H2   HT            0.417         1.008       0
    3447 TIP3 1069 TIP3 OH2  OT           -0.834       15.9994       0
    3448 TIP3 1069 TIP3 H1   HT            0.417         1.008       0
    3449 TIP3 1069 TIP3 H2   HT            0.417         1.008       0
    3450 TIP3 1070 TIP3 OH2  OT           -0.834       15.9994       0
    3451 TIP3 1070 TIP3 H1   HT            0.417         1.008       0
    3452 TIP3 1070 TIP3 H2   HT            0.417         1.008       0
    3453 TIP3 1071 TIP3 OH2  OT           -0.834       15.9994       0
    3454 TIP3 1071 TIP3 H1   HT            0.417         1.008       0
    3455 TIP3 1071 TIP3 H2   HT            0.417         1.008       0
    3456 TIP3 1072 TIP3 OH2  OT           -0.834       15.9994       0
    3457 TIP3 1072 TIP3 H1   HT            0.417         1.008       0
    3458 TIP3 1072 TIP3 H2   HT            0.417         1.008       0
    3459 TIP3 1073 TIP3 OH2  OT           -0.834       15.9994       0
    3460 TIP3 1073 TIP3 H1   HT            0.417         1.008       0
    3461 TIP3 1073 TIP3 H2   HT            0.417         1.008       0
    3462 TIP3 1074 TIP3 OH2  OT           -0.834       15.9994       0
    3463 TIP3 1074 TIP3 H1   HT            0.417         1.008       0
    3464 TIP3 1074 TIP3 H2   HT            0.417         1.008       0
    3465 TIP3 1075 TIP3 OH2  OT           -0.834       15.9994       0
    3466 TIP3 1075 TIP3 H1   HT            0.417         1.008       0
    3467 TIP3 1075 TIP3 H2   HT            0.417         1.008       0
    3468 TIP3 1076 TIP3 OH2  OT           -0.834       15.9994       0
    3469 TIP3 1076 TIP3 H1   HT            0.417         1.008       0
    3470 TIP3 1076 TIP3 H2   HT            0.417         1.008       0
    3471 TIP3 1077 TIP3 OH2  OT           -0.834       15.9994       0
    3472 TIP3 1077 TIP3 H1   HT            0.417         1.008       0
    3473 TIP3 1077 TIP3 H2   HT            0.417         1.008       0
    3474 TIP3 1078 TIP3 OH2  OT           -0.834       15.9994       0
    3475 TIP3 1078 TIP3 H1   HT            0.417         1.008       0
    3476 TIP3 1078 TIP3 H2   HT            0.417         1.008       0
    3477 TIP3 1079 TIP3 OH2  OT           -0.834       15.9994       0
    3478 TIP3 1079 TIP3 H1   HT            0.417         1.008       0
    3479 TIP3 1079 TIP3 H2   HT            0.417         1.008       0
    3480 TIP3 1080 TIP3 OH2  OT           -0.834       15.9994       0
    3481 TIP3 1080 TIP3 H1   HT            0.417         1.008       0
    3482 TIP3 1080 TIP3 H2   HT            0.417         1.008       0
    3483 TIP3 1081 TIP3 OH2  OT           -0.834       15.9994       0
    3484 TIP3 1081 TIP3 H1   HT            0.417         1.008       0
    3485 TIP3 1081 TIP3 H2   HT            0.417         1.008       0
    3486 TIP3 1082 TIP3 OH2  OT           -0.834       15.9994       0
    3487 TIP3 1082 TIP3 H1   HT            0.417         1.008       0
    3488 TIP3 1082 TIP3 H2   HT            0.417         1.008       0
    3489 TIP3 1083 TIP3 OH2  OT           -0.834       15.9994       0
    3490 TIP3 1083 TIP3 H1   HT            0.417         1.008       0
    3491 TIP3 1083 TIP3 H2   HT            0.417         1.008       0
    3492 TIP3 1084 TIP3 OH2  OT           -0.834       15.9994       0
    3493 TIP3 1084 TIP3 H1   HT            0.417         1.008       0
    3494 TIP3 1084 TIP3 H2   HT            0.417         1.008       0
    3495 TIP3 1085 TIP3 OH2  OT           -0.834       15.9994       0
    3496 TIP3 1085 TIP3 H1   HT            0.417         1.008       0
    3497 TIP3 1085 TIP3 H2   HT            0.417         1.008       0
    3498 TIP3 1086 TIP3 OH2  OT           -0.834       15.9994       0
    3499 TIP3 1086 TIP3 H1   HT            0.417         1.008       0
    3500 TIP3 1086 TIP3 H2   HT            0.417         1.008       0
    3501 TIP3 1087 TIP3 OH2  OT           -0.834       15.9994       0
    3502 TIP3 1087 TIP3 H1   HT            0.417         1.008       0
    3503 TIP3 1087 TIP3 H2   HT            0.417         1.008       0
    3504 TIP3 1088 TIP3 OH2  OT           -0.834       15.9994       0
    3505 TIP3 1088 TIP3 H1   HT            0.417         1.008       0
    3506 TIP3 1088 TIP3 H2   HT            0.417         1.008       0
    3507 TIP3 1089 TIP3 OH2  OT           -0.834       15.9994       0
    3508 TIP3 1089 TIP3 H1   HT            0.417         1.008       0
    3509 TIP3 1089 TIP3 H2   HT            0.417         1.008       0
    3510 TIP3 1090 TIP3 OH2  OT           -0.834       15.9994       0
    3511 TIP3 1090 TIP3 H1   HT            0.417         1.008       0
    3512 TIP3 1090 TIP3 H2   HT            0.417         1.008       0
    3513 TIP3 1091 TIP3 OH2  OT           -0.834       15.9994       0
    3514 TIP3 1091 TIP3 H1   HT            0.417         1.008       0
    3515 TIP3 1091 TIP3 H2   HT            0.417         1.008       0
    3516 TIP3 1092 TIP3 OH2  OT           -0.834       15.9994       0
    3517 TIP3 1092 TIP3 H1   HT            0.417         1.008       0
    3518 TIP3 1092 TIP3 H2   HT            0.417         1.008       0
    3519 TIP3 1093 TIP3 OH2  OT           -0.834       15.9994       0
    3520 TIP3 1093 TIP3 H1   HT            0.417         1.008       0
    3521 TIP3 1093 TIP3 H2   HT            0.417         1.008       0
    3522 TIP3 1094 TIP3 OH2  OT           -0.834       15.9994       0
    3523 TIP3 1094 TIP3 H1   HT            0.417         1.008       0
    3524 TIP3 1094 TIP3 H2   HT            0.417         1.008       0
    3525 TIP3 1095 TIP3 OH2  OT           -0.834       15.9994       0
    3526 TIP3 1095 TIP3 H1   HT            0.417         1.008       0
    3527 TIP3 1095 TIP3 H2   HT            0.417         1.008       0
    3528 TIP3 1096 TIP3 OH2  OT           -0.834       15.9994       0
    3529 TIP3 1096 TIP3 H1   HT            0.417         1.008       0
    3530 TIP3 1096 TIP3 H2   HT            0.417         1.008       0
    3531 TIP3 1097 TIP3 OH2  OT           -0.834       15.9994       0
    3532 TIP3 1097 TIP3 H1   HT            0.417         1.008       0
    3533 TIP3 1097 TIP3 H2   HT            0.417         1.008       0
    3534 TIP3 1098 TIP3 OH2  OT           -0.834       15.9994       0
    3535 TIP3 1098 TIP3 H1   HT            0.417         1.008       0
    3536 TIP3 1098 TIP3 H2   HT            0.417         1.008       0
    3537 TIP3 1099 TIP3 OH2  OT           -0.834       15.9994       0
    3538 TIP3 1099 TIP3 H1   HT            0.417         1.008       0
    3539 TIP3 1099 TIP3 H2   HT            0.417         1.008       0
    3540 TIP3 1100 TIP3 OH2  OT           -0.834       15.9994       0
    3541 TIP3 1100 TIP3 H1   HT            0.417         1.008       0
    3542 TIP3 1100 TIP3 H2   HT            0.417         1.008       0
    3543 TIP3 1101 TIP3 OH2  OT           -0.834       15.9994       0
    3544 TIP3 1101 TIP3 H1   HT            0.417         1.008       0
    3545 TIP3 1101 TIP3 H2   HT            0.417         1.008       0
    3546 TIP3 1102 TIP3 OH2  OT           -0.834       15.9994       0
    3547 TIP3 1102 TIP3 H1   HT            0.417         1.008       0
    3548 TIP3 1102 TIP3 H2   HT            0.417         1.008       0
    3549 TIP3 1103 TIP3 OH2  OT           -0.834       15.9994       0
    3550 TIP3 1103 TIP3 H1   HT            0.417         1.008       0
    3551 TIP3 1103 TIP3 H2   HT            0.417         1.008       0
    3552 TIP3 1104 TIP3 OH2  OT           -0.834       15.9994       0
    3553 TIP3 1104 TIP3 H1   HT            0.417         1.008       0
    3554 TIP3 1104 TIP3 H2   HT            0.417         1.008       0
    3555 TIP3 1105 TIP3 OH2  OT           -0.834       15.9994       0
    3556 TIP3 1105 TIP3 H1   HT            0.417         1.008       0
    3557 TIP3 1105 TIP3 H2   HT            0.417         1.008       0
    3558 TIP3 1106 TIP3 OH2  OT           -0.834       15.9994       0
    3559 TIP3 1106 TIP3 H1   HT            0.417         1.008       0
    3560 TIP3 1106 TIP3 H2   HT            0.417         1.008       0
    3561 TIP3 1107 TIP3 OH2  OT           -0.834       15.9994       0
    3562 TIP3 1107 TIP3 H1   HT            0.417         1.008       0
    3563 TIP3 1107 TIP3 H2   HT            0.417         1.008       0
    3564 TIP3 1108 TIP3 OH2  OT           -0.834       15.9994       0
    3565 TIP3 1108 TIP3 H1   HT            0.417         1.008       0
    3566 TIP3 1108 TIP3 H2   HT            0.417         1.008       0
    3567 TIP3 1109 TIP3 OH2  OT           -0.834       15.9994       0
    3568 TIP3 1109 TIP3 H1   HT            0.417         1.008       0
    3569 TIP3 1109 TIP3 H2   HT            0.417         1.008       0
    3570 TIP3 1110 TIP3 OH2  OT           -0.834       15.9994       0
    3571 TIP3 1110 TIP3 H1   HT            0.417         1.008       0
    3572 TIP3 1110 TIP3 H2   HT            0.417         1.008       0
    3573 TIP3 1111 TIP3 OH2  OT           -0.834       15.9994       0
    3574 TIP3 1111 TIP3 H1   HT            0.417         1.008       0
    3575 TIP3 1111 TIP3 H2   HT            0.417         1.008       0
    3576 TIP3 1112 TIP3 OH2  OT           -0.834       15.9994       0
    3577 TIP3 1112 TIP3 H1   HT            0.417         1.008       0
    3578 TIP3 1112 TIP3 H2   HT            0.417         1.008       0
    3579 TIP3 1113 TIP3 OH2  OT           -0.834       15.9994       0
    3580 TIP3 1113 TIP3 H1   HT            0.417         1.008       0
    3581 TIP3 1113 TIP3 H2   HT            0.417         1.008       0
    3582 TIP3 1114 TIP3 OH2  OT           -0.834       15.9994       0
    3583 TIP3 1114 TIP3 H1   HT            0.417         1.008       0
    3584 TIP3 1114 TIP3 H2   HT            0.417         1.008       0
    3585 TIP3 1115 TIP3 OH2  OT           -0.834       15.9994       0
    3586 TIP3 1115 TIP3 H1   HT            0.417         1.008       0
    3587 TIP3 1115 TIP3 H2   HT            0.417         1.008       0
    3588 TIP3 1116 TIP3 OH2  OT           -0.834       15.9994       0
    3589 TIP3 1116 TIP3 H1   HT            0.417         1.008       0
    3590 TIP3 1116 TIP3 H2   HT            0.417         1.008       0
    3591 TIP3 1117 TIP3 OH2  OT           -0.834       15.9994       0
    3592 TIP3 1117 TIP3 H1   HT            0.417         1.008       0
    3593 TIP3 1117 TIP3 H2   HT            0.417         1.008       0
    3594 TIP3 1118 TIP3 OH2  OT           -0.834       15.9994       0
    3595 TIP3 1118 TIP3 H1   HT            0.417         1.008       0
    3596 TIP3 1118 TIP3 H2   HT            0.417         1.008       0
    3597 TIP3 1119 TIP3 OH2  OT           -0.834       15.9994       0
    3598 TIP3 1119 TIP3 H1   HT            0.417         1.008       0
    3599 TIP3 1119 TIP3 H2   HT            0.417         1.008       0
    3600 TIP3 1120 TIP3 OH2  OT           -0.834       15.9994       0
    3601 TIP3 1120 TIP3 H1   HT            0.417         1.008       0
    3602 TIP3 1120 TIP3 H2   HT            0.417         1.008       0
    3603 TIP3 1121 TIP3 OH2  OT           -0.834       15.9994       0
    3604 TIP3 1121 TIP3 H1   HT            0.417         1.008       0
    3605 TIP3 1121 TIP3 H2   HT            0.417         1.008       0
    3606 TIP3 1122 TIP3 OH2  OT           -0.834       15.9994       0
    3607 TIP3 1122 TIP3 H1   HT            0.417         1.008       0
    3608 TIP3 1122 TIP3 H2   HT            0.417         1.008       0
    3609 TIP3 1123 TIP3 OH2  OT           -0.834       15.9994       0
    3610 TIP3 1123 TIP3 H1   HT            0.417         1.008       0
    3611 TIP3 1123 TIP3 H2   HT            0.417         1.008       0
    3612 TIP3 1124 TIP3 OH2  OT           -0.834       15.9994       0
    3613 TIP3 1124 TIP3 H1   HT            0.417         1.008       0
    3614 TIP3 1124 TIP3 H2   HT            0.417         1.008       0
    3615 TIP3 1125 TIP3 OH2  OT           -0.834       15.9994       0
    3616 TIP3 1125 TIP3 H1   HT            0.417         1.008       0
    3617 TIP3 1125 TIP3 H2   HT            0.417         1.008       0
    3618 TIP3 1126 TIP3 OH2  OT           -0.834       15.9994       0
    3619 TIP3 1126 TIP3 H1   HT            0.417         1.008       0
    3620 TIP3 1126 TIP3 H2   HT            0.417         1.008       0
    3621 TIP3 1127 TIP3 OH2  OT           -0.834       15.9994       0
    3622 TIP3 1127 TIP3 H1   HT            0.417         1.008       0
    3623 TIP3 1127 TIP3 H2   HT            0.417         1.008       0
    3624 TIP3 1128 TIP3 OH2  OT           -0.834       15.9994       0
    3625 TIP3 1128 TIP3 H1   HT            0.417         1.008       0
    3626 TIP3 1128 TIP3 H2   HT            0.417         1.008       0
    3627 TIP3 1129 TIP3 OH2  OT           -0.834       15.9994       0
    3628 TIP3 1129 TIP3 H1   HT            0.417         1.008       0
    3629 TIP3 1129 TIP3 H2   HT            0.417         1.008       0
    3630 TIP3 1130 TIP3 OH2  OT           -0.834       15.9994       0
    3631 TIP3 1130 TIP3 H1   HT            0.417         1.008       0
    3632 TIP3 1130 TIP3 H2   HT            0.417         1.008       0
    3633 TIP3 1131 TIP3 OH2  OT           -0.834       15.9994       0
    3634 TIP3 1131 TIP3 H1   HT            0.417         1.008       0
    3635 TIP3 1131 TIP3 H2   HT            0.417         1.008       0
    3636 TIP3 1132 TIP3 OH2  OT           -0.834       15.9994       0
    3637 TIP3 1132 TIP3 H1   HT            0.417         1.008       0
    3638 TIP3 1132 TIP3 H2   HT            0.417         1.008       0
    3639 TIP3 1133 TIP3 OH2  OT           -0.834       15.9994       0
    3640 TIP3 1133 TIP3 H1   HT            0.417         1.008       0
    3641 TIP3 1133 TIP3 H2   HT            0.417         1.008       0
    3642 TIP3 1134 TIP3 OH2  OT           -0.834       15.9994       0
    3643 TIP3 1134 TIP3 H1   HT            0.417         1.008       0
    3644 TIP3 1134 TIP3 H2   HT            0.417         1.008       0
    3645 TIP3 1135 TIP3 OH2  OT           -0.834       15.9994       0
    3646 TIP3 1135 TIP3 H1   HT            0.417         1.008       0
    3647 TIP3 1135 TIP3 H2   HT            0.417         1.008       0
    3648 TIP3 1136 TIP3 OH2  OT           -0.834       15.9994       0
    3649 TIP3 1136 TIP3 H1   HT            0.417         1.008       0
    3650 TIP3 1136 TIP3 H2   HT            0.417         1.008       0
    3651 TIP3 1137 TIP3 OH2  OT           -0.834       15.9994       0
    3652 TIP3 1137 TIP3 H1   HT            0.417         1.008       0
    3653 TIP3 1137 TIP3 H2   HT            0.417         1.008       0
    3654 TIP3 1138 TIP3 OH2  OT           -0.834       15.9994       0
    3655 TIP3 1138 TIP3 H1   HT            0.417         1.008       0
    3656 TIP3 1138 TIP3 H2   HT            0.417         1.008       0
    3657 TIP3 1139 TIP3 OH2  OT           -0.834       15.9994       0
    3658 TIP3 1139 TIP3 H1   HT            0.417         1.008       0
    3659 TIP3 1139 TIP3 H2   HT            0.417         1.008       0
    3660 TIP3 1140 TIP3 OH2  OT           -0.834       15.9994       0
    3661 TIP3 1140 TIP3 H1   HT            0.417         1.008       0
    3662 TIP3 1140 TIP3 H2   HT            0.417         1.008       0
    3663 TIP3 1141 TIP3 OH2  OT           -0.834       15.9994       0
    3664 TIP3 1141 TIP3 H1   HT            0.417         1.008       0
    3665 TIP3 1141 TIP3 H2   HT            0.417         1.008       0
    3666 TIP3 1142 TIP3 OH2  OT           -0.834       15.9994       0
    3667 TIP3 1142 TIP3 H1   HT            0.417         1.008       0
    3668 TIP3 1142 TIP3 H2   HT            0.417         1.008       0
    3669 TIP3 1143 TIP3 OH2  OT           -0.834       15.9994       0
    3670 TIP3 1143 TIP3 H1   HT            0.417         1.008       0
    3671 TIP3 1143 TIP3 H2   HT            0.417         1.008       0
    3672 TIP3 1144 TIP3 OH2  OT           -0.834       15.9994       0
    3673 TIP3 1144 TIP3 H1   HT            0.417         1.008       0
    3674 TIP3 1144 TIP3 H2   HT            0.417         1.008       0
    3675 TIP3 1145 TIP3 OH2  OT           -0.834       15.9994       0
    3676 TIP3 1145 TIP3 H1   HT            0.417         1.008       0
    3677 TIP3 1145 TIP3 H2   HT            0.417         1.008       0
    3678 TIP3 1146 TIP3 OH2  OT           -0.834       15.9994       0
    3679 TIP3 1146 TIP3 H1   HT            0.417         1.008       0
    3680 TIP3 1146 TIP3 H2   HT            0.417         1.008       0
    3681 TIP3 1147 TIP3 OH2  OT           -0.834       15.9994       0
    3682 TIP3 1147 TIP3 H1   HT            0.417         1.008       0
    3683 TIP3 1147 TIP3 H2   HT            0.417         1.008       0
    3684 TIP3 1148 TIP3 OH2  OT           -0.834       15.9994       0
    3685 TIP3 1148 TIP3 H1   HT            0.417         1.008       0
    3686 TIP3 1148 TIP3 H2   HT            0.417         1.008       0
    3687 TIP3 1149 TIP3 OH2  OT           -0.834       15.9994       0
    3688 TIP3 1149 TIP3 H1   HT            0.417         1.008       0
    3689 TIP3 1149 TIP3 H2   HT            0.417         1.008       0
    3690 TIP3 1150 TIP3 OH2  OT           -0.834       15.9994       0
    3691 TIP3 1150 TIP3 H1   HT            0.417         1.008       0
    3692 TIP3 1150 TIP3 H2   HT            0.417         1.008       0
    3693 TIP3 1151 TIP3 OH2  OT           -0.834       15.9994       0
    3694 TIP3 1151 TIP3 H1   HT            0.417         1.008       0
    3695 TIP3 1151 TIP3 H2   HT            0.417         1.008       0
    3696 TIP3 1152 TIP3 OH2  OT           -0.834       15.9994       0
    3697 TIP3 1152 TIP3 H1   HT            0.417         1.008       0
    3698 TIP3 1152 TIP3 H2   HT            0.417         1.008       0
    3699 TIP3 1153 TIP3 OH2  OT           -0.834       15.9994       0
    3700 TIP3 1153 TIP3 H1   HT            0.417         1.008       0
    3701 TIP3 1153 TIP3 H2   HT            0.417         1.008       0
    3702 TIP3 1154 TIP3 OH2  OT           -0.834       15.9994       0
    3703 TIP3 1154 TIP3 H1   HT            0.417         1.008       0
    3704 TIP3 1154 TIP3 H2   HT            0.417         1.008       0
    3705 TIP3 1155 TIP3 OH2  OT           -0.834       15.9994       0
    3706 TIP3 1155 TIP3 H1   HT            0.417         1.008       0
    3707 TIP3 1155 TIP3 H2   HT            0.417         1.008       0
    3708 TIP3 1156 TIP3 OH2  OT           -0.834       15.9994       0
    3709 TIP3 1156 TIP3 H1   HT            0.417         1.008       0
    3710 TIP3 1156 TIP3 H2   HT            0.417         1.008       0
    3711 TIP3 1157 TIP3 OH2  OT           -0.834       15.9994       0
    3712 TIP3 1157 TIP3 H1   HT            0.417         1.008       0
    3713 TIP3 1157 TIP3 H2   HT            0.417         1.008       0
    3714 TIP3 1158 TIP3 OH2  OT           -0.834       15.9994       0
    3715 TIP3 1158 TIP3 H1   HT            0.417         1.008       0
    3716 TIP3 1158 TIP3 H2   HT            0.417         1.008       0
    3717 TIP3 1159 TIP3 OH2  OT           -0.834       15.9994       0
    3718 TIP3 1159 TIP3 H1   HT            0.417         1.008       0
    3719 TIP3 1159 TIP3 H2   HT            0.417         1.008       0
    3720 TIP3 1160 TIP3 OH2  OT           -0.834       15.9994       0
    3721 TIP3 1160 TIP3 H1   HT            0.417         1.008       0
    3722 TIP3 1160 TIP3 H2   HT            0.417         1.008       0
    3723 TIP3 1161 TIP3 OH2  OT           -0.834       15.9994       0
    3724 TIP3 1161 TIP3 H1   HT            0.417         1.008       0
    3725 TIP3 1161 TIP3 H2   HT            0.417         1.008       0
    3726 TIP3 1162 TIP3 OH2  OT           -0.834       15.9994       0
    3727 TIP3 1162 TIP3 H1   HT            0.417         1.008       0
    3728 TIP3 1162 TIP3 H2   HT            0.417         1.008       0
    3729 TIP3 1163 TIP3 OH2  OT           -0.834       15.9994       0
    3730 TIP3 1163 TIP3 H1   HT            0.417         1.008       0
    3731 TIP3 1163 TIP3 H2   HT            0.417         1.008       0
    3732 TIP3 1164 TIP3 OH2  OT           -0.834       15.9994       0
    3733 TIP3 1164 TIP3 H1   HT            0.417         1.008       0
    3734 TIP3 1164 TIP3 H2   HT            0.417         1.008       0
    3735 TIP3 1165 TIP3 OH2  OT           -0.834       15.9994       0
    3736 TIP3 1165 TIP3 H1   HT            0.417         1.008       0
    3737 TIP3 1165 TIP3 H2   HT            0.417         1.008       0
    3738 TIP3 1166 TIP3 OH2  OT           -0.834       15.9994       0
    3739 TIP3 1166 TIP3 H1   HT            0.417         1.008       0
    3740 TIP3 1166 TIP3 H2   HT            0.417         1.008       0
    3741 TIP3 1167 TIP3 OH2  OT           -0.834       15.9994       0
    3742 TIP3 1167 TIP3 H1   HT            0.417         1.008       0
    3743 TIP3 1167 TIP3 H2   HT            0.417         1.008       0
    3744 TIP3 1168 TIP3 OH2  OT           -0.834       15.9994       0
    3745 TIP3 1168 TIP3 H1   HT            0.417         1.008       0
    3746 TIP3 1168 TIP3 H2   HT            0.417         1.008       0
    3747 TIP3 1169 TIP3 OH2  OT           -0.834       15.9994       0
    3748 TIP3 1169 TIP3 H1   HT            0.417         1.008       0
    3749 TIP3 1169 TIP3 H2   HT            0.417         1.008       0
    3750 TIP3 1170 TIP3 OH2  OT           -0.834       15.9994       0
    3751 TIP3 1170 TIP3 H1   HT            0.417         1.008       0
    3752 TIP3 1170 TIP3 H2   HT            0.417         1.008       0
    3753 TIP3 1171 TIP3 OH2  OT           -0.834       15.9994       0
    3754 TIP3 1171 TIP3 H1   HT            0.417         1.008       0
    3755 TIP3 1171 TIP3 H2   HT            0.417         1.008       0
    3756 TIP3 1172 TIP3 OH2  OT           -0.834       15.9994       0
    3757 TIP3 1172 TIP3 H1   HT            0.417         1.008       0
    3758 TIP3 1172 TIP3 H2   HT            0.417         1.008       0
    3759 TIP3 1173 TIP3 OH2  OT           -0.834       15.9994       0
    3760 TIP3 1173 TIP3 H1   HT            0.417         1.008       0
    3761 TIP3 1173 TIP3 H2   HT            0.417         1.008       0
    3762 TIP3 1174 TIP3 OH2  OT           -0.834       15.9994       0
    3763 TIP3 1174 TIP3 H1   HT            0.417         1.008       0
    3764 TIP3 1174 TIP3 H2   HT            0.417         1.008       0
    3765 TIP3 1175 TIP3 OH2  OT           -0.834       15.9994       0
    3766 TIP3 1175 TIP3 H1   HT            0.417         1.008       0
    3767 TIP3 1175 TIP3 H2   HT            0.417         1.008       0
    3768 TIP3 1176 TIP3 OH2  OT           -0.834       15.9994       0
    3769 TIP3 1176 TIP3 H1   HT            0.417         1.008       0
    3770 TIP3 1176 TIP3 H2   HT            0.417         1.008       0
    3771 TIP3 1177 TIP3 OH2  OT           -0.834       15.9994       0
    3772 TIP3 1177 TIP3 H1   HT            0.417         1.008       0
    3773 TIP3 1177 TIP3 H2   HT            0.417         1.008       0
    3774 TIP3 1178 TIP3 OH2  OT           -0.834       15.9994       0
    3775 TIP3 1178 TIP3 H1   HT            0.417         1.008       0
    3776 TIP3 1178 TIP3 H2   HT            0.417         1.008       0
    3777 TIP3 1179 TIP3 OH2  OT           -0.834       15.9994       0
    3778 TIP3 1179 TIP3 H1   HT            0.417         1.008       0
    3779 TIP3 1179 TIP3 H2   HT            0.417         1.008       0
    3780 TIP3 1180 TIP3 OH2  OT           -0.834       15.9994       0
    3781 TIP3 1180 TIP3 H1   HT            0.417         1.008       0
    3782 TIP3 1180 TIP3 H2   HT            0.417         1.008       0
    3783 TIP3 1181 TIP3 OH2  OT           -0.834       15.9994       0
    3784 TIP3 1181 TIP3 H1   HT            0.417         1.008       0
    3785 TIP3 1181 TIP3 H2   HT            0.417         1.008       0
    3786 TIP3 1182 TIP3 OH2  OT           -0.834       15.9994       0
    3787 TIP3 1182 TIP3 H1   HT            0.417         1.008       0
    3788 TIP3 1182 TIP3 H2   HT            0.417         1.008       0
    3789 TIP3 1183 TIP3 OH2  OT           -0.834       15.9994       0
    3790 TIP3 1183 TIP3 H1   HT            0.417         1.008       0
    3791 TIP3 1183 TIP3 H2   HT            0.417         1.008       0
    3792 TIP3 1184 TIP3 OH2  OT           -0.834       15.9994       0
    3793 TIP3 1184 TIP3 H1   HT            0.417         1.008       0
    3794 TIP3 1184 TIP3 H2   HT            0.417         1.008       0
    3795 TIP3 1185 TIP3 OH2  OT           -0.834       15.9994       0
    3796 TIP3 1185 TIP3 H1   HT            0.417         1.008       0
    3797 TIP3 1185 TIP3 H2   HT            0.417         1.008       0
    3798 TIP3 1186 TIP3 OH2  OT           -0.834       15.9994       0
    3799 TIP3 1186 TIP3 H1   HT            0.417         1.008       0
    3800 TIP3 1186 TIP3 H2   HT            0.417         1.008       0
    3801 TIP3 1187 TIP3 OH2  OT           -0.834       15.9994       0
    3802 TIP3 1187 TIP3 H1   HT            0.417         1.008       0
    3803 TIP3 1187 TIP3 H2   HT            0.417         1.008       0
    3804 TIP3 1188 TIP3 OH2  OT           -0.834       15.9994       0
    3805 TIP3 1188 TIP3 H1   HT            0.417         1.008       0
    3806 TIP3 1188 TIP3 H2   HT            0.417         1.008       0
    3807 TIP3 1189 TIP3 OH2  OT           -0.834       15.9994       0
    3808 TIP3 1189 TIP3 H1   HT            0.417         1.008       0
    3809 TIP3 1189 TIP3 H2   HT            0.417         1.008       0
    3810 TIP3 1190 TIP3 OH2  OT           -0.834       15.9994       0
    3811 TIP3 1190 TIP3 H1   HT            0.417         1.008       0
    3812 TIP3 1190 TIP3 H2   HT            0.417         1.008       0
    3813 TIP3 1191 TIP3 OH2  OT           -0.834       15.9994       0
    3814 TIP3 1191 TIP3 H1   HT            0.417         1.008       0
    3815 TIP3 1191 TIP3 H2   HT            0.417         1.008       0
    3816 TIP3 1192 TIP3 OH2  OT           -0.834       15.9994       0
    3817 TIP3 1192 TIP3 H1   HT            0.417         1.008       0
    3818 TIP3 1192 TIP3 H2   HT            0.417         1.008       0
    3819 TIP3 1193 TIP3 OH2  OT           -0.834       15.9994       0
    3820 TIP3 1193 TIP3 H1   HT            0.417         1.008       0
    3821 TIP3 1193 TIP3 H2   HT            0.417         1.008       0
    3822 TIP3 1194 TIP3 OH2  OT           -0.834       15.9994       0
    3823 TIP3 1194 TIP3 H1   HT            0.417         1.008       0
    3824 TIP3 1194 TIP3 H2   HT            0.417         1.008       0
    3825 TIP3 1195 TIP3 OH2  OT           -0.834       15.9994       0
    3826 TIP3 1195 TIP3 H1   HT            0.417         1.008       0
    3827 TIP3 1195 TIP3 H2   HT            0.417         1.008       0
    3828 TIP3 1196 TIP3 OH2  OT           -0.834       15.9994       0
    3829 TIP3 1196 TIP3 H1   HT            0.417         1.008       0
    3830 TIP3 1196 TIP3 H2   HT            0.417         1.008       0
    3831 TIP3 1197 TIP3 OH2  OT           -0.834       15.9994       0
    3832 TIP3 1197 TIP3 H1   HT            0.417         1.008       0
    3833 TIP3 1197 TIP3 H2   HT            0.417         1.008       0
    3834 TIP3 1198 TIP3 OH2  OT           -0.834       15.9994       0
    3835 TIP3 1198 TIP3 H1   HT            0.417         1.008       0
    3836 TIP3 1198 TIP3 H2   HT            0.417         1.008       0
    3837 TIP3 1199 TIP3 OH2  OT           -0.834       15.9994       0
    3838 TIP3 1199 TIP3 H1   HT            0.417         1.008       0
    3839 TIP3 1199 TIP3 H2   HT            0.417         1.008       0
    3840 TIP3 1200 TIP3 OH2  OT           -0.834       15.9994       0
    3841 TIP3 1200 TIP3 H1   HT            0.417         1.008       0
    3842 TIP3 1200 TIP3 H2   HT            0.417         1.008       0
    3843 TIP3 1201 TIP3 OH2  OT           -0.834       15.9994       0
    3844 TIP3 1201 TIP3 H1   HT            0.417         1.008       0
    3845 TIP3 1201 TIP3 H2   HT            0.417         1.008       0
    3846 TIP3 1202 TIP3 OH2  OT           -0.834       15.9994       0
    3847 TIP3 1202 TIP3 H1   HT            0.417         1.008       0
    3848 TIP3 1202 TIP3 H2   HT            0.417         1.008       0
    3849 TIP3 1203 TIP3 OH2  OT           -0.834       15.9994       0
    3850 TIP3 1203 TIP3 H1   HT            0.417         1.008       0
    3851 TIP3 1203 TIP3 H2   HT            0.417         1.008       0
    3852 TIP3 1204 TIP3 OH2  OT           -0.834       15.9994       0
    3853 TIP3 1204 TIP3 H1   HT            0.417         1.008       0
    3854 TIP3 1204 TIP3 H2   HT            0.417         1.008       0
    3855 TIP3 1205 TIP3 OH2  OT           -0.834       15.9994       0
    3856 TIP3 1205 TIP3 H1   HT            0.417         1.008       0
    3857 TIP3 1205 TIP3 H2   HT            0.417         1.008       0
    3858 TIP3 1206 TIP3 OH2  OT           -0.834       15.9994       0
    3859 TIP3 1206 TIP3 H1   HT            0.417         1.008       0
    3860 TIP3 1206 TIP3 H2   HT            0.417         1.008       0
    3861 TIP3 1207 TIP3 OH2  OT           -0.834       15.9994       0
    3862 TIP3 1207 TIP3 H1   HT            0.417         1.008       0
    3863 TIP3 1207 TIP3 H2   HT            0.417         1.008       0
    3864 TIP3 1208 TIP3 OH2  OT           -0.834       15.9994       0
    3865 TIP3 1208 TIP3 H1   HT            0.417         1.008       0
    3866 TIP3 1208 TIP3 H2   HT            0.417         1.008       0
    3867 TIP3 1209 TIP3 OH2  OT           -0.834       15.9994       0
    3868 TIP3 1209 TIP3 H1   HT            0.417         1.008       0
    3869 TIP3 1209 TIP3 H2   HT            0.417         1.008       0
    3870 TIP3 1210 TIP3 OH2  OT           -0.834       15.9994       0
    3871 TIP3 1210 TIP3 H1   HT            0.417         1.008       0
    3872 TIP3 1210 TIP3 H2   HT            0.417         1.008       0
    3873 TIP3 1211 TIP3 OH2  OT           -0.834       15.9994       0
    3874 TIP3 1211 TIP3 H1   HT            0.417         1.008       0
    3875 TIP3 1211 TIP3 H2   HT            0.417         1.008       0
    3876 TIP3 1212 TIP3 OH2  OT           -0.834       15.9994       0
    3877 TIP3 1212 TIP3 H1   HT            0.417         1.008       0
    3878 TIP3 1212 TIP3 H2   HT            0.417         1.008       0
    3879 TIP3 1213 TIP3 OH2  OT           -0.834       15.9994       0
    3880 TIP3 1213 TIP3 H1   HT            0.417         1.008       0
    3881 TIP3 1213 TIP3 H2   HT            0.417         1.008       0
    3882 TIP3 1214 TIP3 OH2  OT           -0.834       15.9994       0
    3883 TIP3 1214 TIP3 H1   HT            0.417         1.008       0
    3884 TIP3 1214 TIP3 H2   HT            0.417         1.008       0
    3885 TIP3 1215 TIP3 OH2  OT           -0.834       15.9994       0
    3886 TIP3 1215 TIP3 H1   HT            0.417         1.008       0
    3887 TIP3 1215 TIP3 H2   HT            0.417         1.008       0
    3888 TIP3 1216 TIP3 OH2  OT           -0.834       15.9994       0
    3889 TIP3 1216 TIP3 H1   HT            0.417         1.008       0
    3890 TIP3 1216 TIP3 H2   HT            0.417         1.008       0
    3891 TIP3 1217 TIP3 OH2  OT           -0.834       15.9994       0
    3892 TIP3 1217 TIP3 H1   HT            0.417         1.008       0
    3893 TIP3 1217 TIP3 H2   HT            0.417         1.008       0
    3894 TIP3 1218 TIP3 OH2  OT           -0.834       15.9994       0
    3895 TIP3 1218 TIP3 H1   HT            0.417         1.008       0
    3896 TIP3 1218 TIP3 H2   HT            0.417         1.008       0
    3897 TIP3 1219 TIP3 OH2  OT           -0.834       15.9994       0
    3898 TIP3 1219 TIP3 H1   HT            0.417         1.008       0
    3899 TIP3 1219 TIP3 H2   HT            0.417         1.008       0
    3900 TIP3 1220 TIP3 OH2  OT           -0.834       15.9994       0
    3901 TIP3 1220 TIP3 H1   HT            0.417         1.008       0
    3902 TIP3 1220 TIP3 H2   HT            0.417         1.008       0
    3903 TIP3 1221 TIP3 OH2  OT           -0.834       15.9994       0
    3904 TIP3 1221 TIP3 H1   HT            0.417         1.008       0
    3905 TIP3 1221 TIP3 H2   HT            0.417         1.008       0
    3906 TIP3 1222 TIP3 OH2  OT           -0.834       15.9994       0
    3907 TIP3 1222 TIP3 H1   HT            0.417         1.008       0
    3908 TIP3 1222 TIP3 H2   HT            0.417         1.008       0
    3909 TIP3 1223 TIP3 OH2  OT           -0.834       15.9994       0
    3910 TIP3 1223 TIP3 H1   HT            0.417         1.008       0
    3911 TIP3 1223 TIP3 H2   HT            0.417         1.008       0
    3912 TIP3 1224 TIP3 OH2  OT           -0.834       15.9994       0
    3913 TIP3 1224 TIP3 H1   HT            0.417         1.008       0
    3914 TIP3 1224 TIP3 H2   HT            0.417         1.008       0
    3915 TIP3 1225 TIP3 OH2  OT           -0.834       15.9994       0
    3916 TIP3 1225 TIP3 H1   HT            0.417         1.008       0
    3917 TIP3 1225 TIP3 H2   HT            0.417         1.008       0
    3918 TIP3 1226 TIP3 OH2  OT           -0.834       15.9994       0
    3919 TIP3 1226 TIP3 H1   HT            0.417         1.008       0
    3920 TIP3 1226 TIP3 H2   HT            0.417         1.008       0
    3921 TIP3 1227 TIP3 OH2  OT           -0.834       15.9994       0
    3922 TIP3 1227 TIP3 H1   HT            0.417         1.008       0
    3923 TIP3 1227 TIP3 H2   HT            0.417         1.008       0
    3924 TIP3 1228 TIP3 OH2  OT           -0.834       15.9994       0
    3925 TIP3 1228 TIP3 H1   HT            0.417         1.008       0
    3926 TIP3 1228 TIP3 H2   HT            0.417         1.008       0
    3927 TIP3 1229 TIP3 OH2  OT           -0.834       15.9994       0
    3928 TIP3 1229 TIP3 H1   HT            0.417         1.008       0
    3929 TIP3 1229 TIP3 H2   HT            0.417         1.008       0
    3930 TIP3 1230 TIP3 OH2  OT           -0.834       15.9994       0
    3931 TIP3 1230 TIP3 H1   HT            0.417         1.008       0
    3932 TIP3 1230 TIP3 H2   HT            0.417         1.008       0
    3933 TIP3 1231 TIP3 OH2  OT           -0.834       15.9994       0
    3934 TIP3 1231 TIP3 H1   HT            0.417         1.008       0
    3935 TIP3 1231 TIP3 H2   HT            0.417         1.008       0
    3936 TIP3 1232 TIP3 OH2  OT           -0.834       15.9994       0
    3937 TIP3 1232 TIP3 H1   HT            0.417         1.008       0
    3938 TIP3 1232 TIP3 H2   HT            0.417         1.008       0
    3939 TIP3 1233 TIP3 OH2  OT           -0.834       15.9994       0
    3940 TIP3 1233 TIP3 H1   HT            0.417         1.008       0
    3941 TIP3 1233 TIP3 H2   HT            0.417         1.008       0
    3942 TIP3 1234 TIP3 OH2  OT           -0.834       15.9994       0
    3943 TIP3 1234 TIP3 H1   HT            0.417         1.008       0
    3944 TIP3 1234 TIP3 H2   HT            0.417         1.008       0
    3945 TIP3 1235 TIP3 OH2  OT           -0.834       15.9994       0
    3946 TIP3 1235 TIP3 H1   HT            0.417         1.008       0
    3947 TIP3 1235 TIP3 H2   HT            0.417         1.008       0
    3948 TIP3 1236 TIP3 OH2  OT           -0.834       15.9994       0
    3949 TIP3 1236 TIP3 H1   HT            0.417         1.008       0
    3950 TIP3 1236 TIP3 H2   HT            0.417         1.008       0
    3951 TIP3 1237 TIP3 OH2  OT           -0.834       15.9994       0
    3952 TIP3 1237 TIP3 H1   HT            0.417         1.008       0
    3953 TIP3 1237 TIP3 H2   HT            0.417         1.008       0
    3954 TIP3 1238 TIP3 OH2  OT           -0.834       15.9994       0
    3955 TIP3 1238 TIP3 H1   HT            0.417         1.008       0
    3956 TIP3 1238 TIP3 H2   HT            0.417         1.008       0
    3957 TIP3 1239 TIP3 OH2  OT           -0.834       15.9994       0
    3958 TIP3 1239 TIP3 H1   HT            0.417         1.008       0
    3959 TIP3 1239 TIP3 H2   HT            0.417         1.008       0
    3960 TIP3 1240 TIP3 OH2  OT           -0.834       15.9994       0
    3961 TIP3 1240 TIP3 H1   HT            0.417         1.008       0
    3962 TIP3 1240 TIP3 H2   HT            0.417         1.008       0
    3963 TIP3 1241 TIP3 OH2  OT           -0.834       15.9994       0
    3964 TIP3 1241 TIP3 H1   HT            0.417         1.008       0
    3965 TIP3 1241 TIP3 H2   HT            0.417         1.008       0
    3966 TIP3 1242 TIP3 OH2  OT           -0.834       15.9994       0
    3967 TIP3 1242 TIP3 H1   HT            0.417         1.008       0
    3968 TIP3 1242 TIP3 H2   HT            0.417         1.008       0
    3969 TIP3 1243 TIP3 OH2  OT           -0.834       15.9994       0
    3970 TIP3 1243 TIP3 H1   HT            0.417         1.008       0
    3971 TIP3 1243 TIP3 H2   HT            0.417         1.008       0
    3972 TIP3 1244 TIP3 OH2  OT           -0.834       15.9994       0
    3973 TIP3 1244 TIP3 H1   HT            0.417         1.008       0
    3974 TIP3 1244 TIP3 H2   HT            0.417         1.008       0
    3975 TIP3 1245 TIP3 OH2  OT           -0.834       15.9994       0
    3976 TIP3 1245 TIP3 H1   HT            0.417         1.008       0
    3977 TIP3 1245 TIP3 H2   HT            0.417         1.008       0
    3978 TIP3 1246 TIP3 OH2  OT           -0.834       15.9994       0
    3979 TIP3 1246 TIP3 H1   HT            0.417         1.008       0
    3980 TIP3 1246 TIP3 H2   HT            0.417         1.008       0
    3981 TIP3 1247 TIP3 OH2  OT           -0.834       15.9994       0
    3982 TIP3 1247 TIP3 H1   HT            0.417         1.008       0
    3983 TIP3 1247 TIP3 H2   HT            0.417         1.008       0
    3984 TIP3 1248 TIP3 OH2  OT           -0.834       15.9994       0
    3985 TIP3 1248 TIP3 H1   HT            0.417         1.008       0
    3986 TIP3 1248 TIP3 H2   HT            0.417         1.008       0
    3987 TIP3 1249 TIP3 OH2  OT           -0.834       15.9994       0
    3988 TIP3 1249 TIP3 H1   HT            0.417         1.008       0
    3989 TIP3 1249 TIP3 H2   HT            0.417         1.008       0
    3990 TIP3 1250 TIP3 OH2  OT           -0.834       15.9994       0
    3991 TIP3 1250 TIP3 H1   HT            0.417         1.008       0
    3992 TIP3 1250 TIP3 H2   HT            0.417         1.008       0
    3993 TIP3 1251 TIP3 OH2  OT           -0.834       15.9994       0
    3994 TIP3 1251 TIP3 H1   HT            0.417         1.008       0
    3995 TIP3 1251 TIP3 H2   HT            0.417         1.008       0
    3996 TIP3 1252 TIP3 OH2  OT           -0.834       15.9994       0
    3997 TIP3 1252 TIP3 H1   HT            0.417         1.008       0
    3998 TIP3 1252 TIP3 H2   HT            0.417         1.008       0
    3999 TIP3 1253 TIP3 OH2  OT           -0.834       15.9994       0
    4000 TIP3 1253 TIP3 H1   HT            0.417         1.008       0
    4001 TIP3 1253 TIP3 H2   HT            0.417         1.008       0
    4002 TIP3 1254 TIP3 OH2  OT           -0.834       15.9994       0
    4003 TIP3 1254 TIP3 H1   HT            0.417         1.008       0
    4004 TIP3 1254 TIP3 H2   HT            0.417         1.008       0
    4005 TIP3 1255 TIP3 OH2  OT           -0.834       15.9994       0
    4006 TIP3 1255 TIP3 H1   HT            0.417         1.008       0
    4007 TIP3 1255 TIP3 H2   HT            0.417         1.008       0
    4008 TIP3 1256 TIP3 OH2  OT           -0.834       15.9994       0
    4009 TIP3 1256 TIP3 H1   HT            0.417         1.008       0
    4010 TIP3 1256 TIP3 H2   HT            0.417         1.008       0
    4011 TIP3 1257 TIP3 OH2  OT           -0.834       15.9994       0
    4012 TIP3 1257 TIP3 H1   HT            0.417         1.008       0
    4013 TIP3 1257 TIP3 H2   HT            0.417         1.008       0
    4014 TIP3 1258 TIP3 OH2  OT           -0.834       15.9994       0
    4015 TIP3 1258 TIP3 H1   HT            0.417         1.008       0
    4016 TIP3 1258 TIP3 H2   HT            0.417         1.008       0
    4017 TIP3 1259 TIP3 OH2  OT           -0.834       15.9994       0
    4018 TIP3 1259 TIP3 H1   HT            0.417         1.008       0
    4019 TIP3 1259 TIP3 H2   HT            0.417         1.008       0
    4020 TIP3 1260 TIP3 OH2  OT           -0.834       15.9994       0
    4021 TIP3 1260 TIP3 H1   HT            0.417         1.008       0
    4022 TIP3 1260 TIP3 H2   HT            0.417         1.008       0
    4023 TIP3 1261 TIP3 OH2  OT           -0.834       15.9994       0
    4024 TIP3 1261 TIP3 H1   HT            0.417         1.008       0
    4025 TIP3 1261 TIP3 H2   HT            0.417         1.008       0
    4026 TIP3 1262 TIP3 OH2  OT           -0.834       15.9994       0
    4027 TIP3 1262 TIP3 H1   HT            0.417         1.008       0
    4028 TIP3 1262 TIP3 H2   HT            0.417         1.008       0
    4029 TIP3 1263 TIP3 OH2  OT           -0.834       15.9994       0
    4030 TIP3 1263 TIP3 H1   HT            0.417         1.008       0
    4031 TIP3 1263 TIP3 H2   HT            0.417         1.008       0
    4032 TIP3 1264 TIP3 OH2  OT           -0.834       15.9994       0
    4033 TIP3 1264 TIP3 H1   HT            0.417         1.008       0
    4034 TIP3 1264 TIP3 H2   HT            0.417         1.008       0
    4035 TIP3 1265 TIP3 OH2  OT           -0.834       15.9994       0
    4036 TIP3 1265 TIP3 H1   HT            0.417         1.008       0
    4037 TIP3 1265 TIP3 H2   HT            0.417         1.008       0
    4038 TIP3 1266 TIP3 OH2  OT           -0.834       15.9994       0
    4039 TIP3 1266 TIP3 H1   HT            0.417         1.008       0
    4040 TIP3 1266 TIP3 H2   HT            0.417         1.008       0
    4041 TIP3 1267 TIP3 OH2  OT           -0.834       15.9994       0
    4042 TIP3 1267 TIP3 H1   HT            0.417         1.008       0
    4043 TIP3 1267 TIP3 H2   HT            0.417         1.008       0
    4044 TIP3 1268 TIP3 OH2  OT           -0.834       15.9994       0
    4045 TIP3 1268 TIP3 H1   HT            0.417         1.008       0
    4046 TIP3 1268 TIP3 H2   HT            0.417         1.008       0
    4047 TIP3 1269 TIP3 OH2  OT           -0.834       15.9994       0
    4048 TIP3 1269 TIP3 H1   HT            0.417         1.008       0
    4049 TIP3 1269 TIP3 H2   HT            0.417         1.008       0
    4050 TIP3 1270 TIP3 OH2  OT           -0.834       15.9994       0
    4051 TIP3 1270 TIP3 H1   HT            0.417         1.008       0
    4052 TIP3 1270 TIP3 H2   HT            0.417         1.008       0
    4053 TIP3 1271 TIP3 OH2  OT           -0.834       15.9994       0
    4054 TIP3 1271 TIP3 H1   HT            0.417         1.008       0
    4055 TIP3 1271 TIP3 H2   HT            0.417         1.008       0
    4056 TIP3 1272 TIP3 OH2  OT           -0.834       15.9994       0
    4057 TIP3 1272 TIP3 H1   HT            0.417         1.008       0
    4058 TIP3 1272 TIP3 H2   HT            0.417         1.008       0
    4059 TIP3 1273 TIP3 OH2  OT           -0.834       15.9994       0
    4060 TIP3 1273 TIP3 H1   HT            0.417         1.008       0
    4061 TIP3 1273 TIP3 H2   HT            0.417         1.008       0
    4062 TIP3 1274 TIP3 OH2  OT           -0.834       15.9994       0
    4063 TIP3 1274 TIP3 H1   HT            0.417         1.008       0
    4064 TIP3 1274 TIP3 H2   HT            0.417         1.008       0
    4065 TIP3 1275 TIP3 OH2  OT           -0.834       15.9994       0
    4066 TIP3 1275 TIP3 H1   HT            0.417         1.008       0
    4067 TIP3 1275 TIP3 H2   HT            0.417         1.008       0
    4068 TIP3 1276 TIP3 OH2  OT           -0.834       15.9994       0
    4069 TIP3 1276 TIP3 H1   HT            0.417         1.008       0
    4070 TIP3 1276 TIP3 H2   HT            0.417         1.008       0
    4071 TIP3 1277 TIP3 OH2  OT           -0.834       15.9994       0
    4072 TIP3 1277 TIP3 H1   HT            0.417         1.008       0
    4073 TIP3 1277 TIP3 H2   HT            0.417         1.008       0
    4074 TIP3 1278 TIP3 OH2  OT           -0.834       15.9994       0
    4075 TIP3 1278 TIP3 H1   HT            0.417         1.008       0
    4076 TIP3 1278 TIP3 H2   HT            0.417         1.008       0
    4077 TIP3 1279 TIP3 OH2  OT           -0.834       15.9994       0
    4078 TIP3 1279 TIP3 H1   HT            0.417         1.008       0
    4079 TIP3 1279 TIP3 H2   HT            0.417         1.008       0
    4080 TIP3 1280 TIP3 OH2  OT           -0.834       15.9994       0
    4081 TIP3 1280 TIP3 H1   HT            0.417         1.008       0
    4082 TIP3 1280 TIP3 H2   HT            0.417         1.008       0
    4083 TIP3 1281 TIP3 OH2  OT           -0.834       15.9994       0
    4084 TIP3 1281 TIP3 H1   HT            0.417         1.008       0
    4085 TIP3 1281 TIP3 H2   HT            0.417         1.008       0
    4086 TIP3 1282 TIP3 OH2  OT           -0.834       15.9994       0
    4087 TIP3 1282 TIP3 H1   HT            0.417         1.008       0
    4088 TIP3 1282 TIP3 H2   HT            0.417         1.008       0
    4089 TIP3 1283 TIP3 OH2  OT           -0.834       15.9994       0
    4090 TIP3 1283 TIP3 H1   HT            0.417         1.008       0
    4091 TIP3 1283 TIP3 H2   HT            0.417         1.008       0
    4092 TIP3 1284 TIP3 OH2  OT           -0.834       15.9994       0
    4093 TIP3 1284 TIP3 H1   HT            0.417         1.008       0
    4094 TIP3 1284 TIP3 H2   HT            0.417         1.008       0
    4095 TIP3 1285 TIP3 OH2  OT           -0.834       15.9994       0
    4096 TIP3 1285 TIP3 H1   HT            0.417         1.008       0
    4097 TIP3 1285 TIP3 H2   HT            0.417         1.008       0
    4098 TIP3 1286 TIP3 OH2  OT           -0.834       15.9994       0
    4099 TIP3 1286 TIP3 H1   HT            0.417         1.008       0
    4100 TIP3 1286 TIP3 H2   HT            0.417         1.008       0
    4101 TIP3 1287 TIP3 OH2  OT           -0.834       15.9994       0
    4102 TIP3 1287 TIP3 H1   HT            0.417         1.008       0
    4103 TIP3 1287 TIP3 H2   HT            0.417         1.008       0
    4104 TIP3 1288 TIP3 OH2  OT           -0.834       15.9994       0
    4105 TIP3 1288 TIP3 H1   HT            0.417         1.008       0
    4106 TIP3 1288 TIP3 H2   HT            0.417         1.008       0
    4107 TIP3 1289 TIP3 OH2  OT           -0.834       15.9994       0
    4108 TIP3 1289 TIP3 H1   HT            0.417         1.008       0
    4109 TIP3 1289 TIP3 H2   HT            0.417         1.008       0
    4110 TIP3 1290 TIP3 OH2  OT           -0.834       15.9994       0
    4111 TIP3 1290 TIP3 H1   HT            0.417         1.008       0
    4112 TIP3 1290 TIP3 H2   HT            0.417         1.008       0
    4113 TIP3 1291 TIP3 OH2  OT           -0.834       15.9994       0
    4114 TIP3 1291 TIP3 H1   HT            0.417         1.008       0
    4115 TIP3 1291 TIP3 H2   HT            0.417         1.008       0
    4116 TIP3 1292 TIP3 OH2  OT           -0.834       15.9994       0
    4117 TIP3 1292 TIP3 H1   HT            0.417         1.008       0
    4118 TIP3 1292 TIP3 H2   HT            0.417         1.008       0
    4119 TIP3 1293 TIP3 OH2  OT           -0.834       15.9994       0
    4120 TIP3 1293 TIP3 H1   HT            0.417         1.008       0
    4121 TIP3 1293 TIP3 H2   HT            0.417         1.008       0
    4122 TIP3 1294 TIP3 OH2  OT           -0.834       15.9994       0
    4123 TIP3 1294 TIP3 H1   HT            0.417         1.008       0
    4124 TIP3 1294 TIP3 H2   HT            0.417         1.008       0
    4125 TIP3 1295 TIP3 OH2  OT           -0.834       15.9994       0
    4126 TIP3 1295 TIP3 H1   HT            0.417         1.008       0
    4127 TIP3 1295 TIP3 H2   HT            0.417         1.008       0
    4128 TIP3 1296 TIP3 OH2  OT           -0.834       15.9994       0
    4129 TIP3 1296 TIP3 H1   HT            0.417         1.008       0
    4130 TIP3 1296 TIP3 H2   HT            0.417         1.008       0
    4131 TIP3 1297 TIP3 OH2  OT           -0.834       15.9994       0
    4132 TIP3 1297 TIP3 H1   HT            0.417         1.008       0
    4133 TIP3 1297 TIP3 H2   HT            0.417         1.008       0
    4134 TIP3 1298 TIP3 OH2  OT           -0.834       15.9994       0
    4135 TIP3 1298 TIP3 H1   HT            0.417         1.008       0
    4136 TIP3 1298 TIP3 H2   HT            0.417         1.008       0
    4137 TIP3 1299 TIP3 OH2  OT           -0.834       15.9994       0
    4138 TIP3 1299 TIP3 H1   HT            0.417         1.008       0
    4139 TIP3 1299 TIP3 H2   HT            0.417         1.008       0
    4140 TIP3 1300 TIP3 OH2  OT           -0.834       15.9994       0
    4141 TIP3 1300 TIP3 H1   HT            0.417         1.008       0
    4142 TIP3 1300 TIP3 H2   HT            0.417         1.008       0
    4143 TIP3 1301 TIP3 OH2  OT           -0.834       15.9994       0
    4144 TIP3 1301 TIP3 H1   HT            0.417         1.008       0
    4145 TIP3 1301 TIP3 H2   HT            0.417         1.008       0
    4146 TIP3 1302 TIP3 OH2  OT           -0.834       15.9994       0
    4147 TIP3 1302 TIP3 H1   HT            0.417         1.008       0
    4148 TIP3 1302 TIP3 H2   HT            0.417         1.008       0
    4149 TIP3 1303 TIP3 OH2  OT           -0.834       15.9994       0
    4150 TIP3 1303 TIP3 H1   HT            0.417         1.008       0
    4151 TIP3 1303 TIP3 H2   HT            0.417         1.008       0
    4152 TIP3 1304 TIP3 OH2  OT           -0.834       15.9994       0
    4153 TIP3 1304 TIP3 H1   HT            0.417         1.008       0
    4154 TIP3 1304 TIP3 H2   HT            0.417         1.008       0
    4155 TIP3 1305 TIP3 OH2  OT           -0.834       15.9994       0
    4156 TIP3 1305 TIP3 H1   HT            0.417         1.008       0
    4157 TIP3 1305 TIP3 H2   HT            0.417         1.008       0
    4158 TIP3 1306 TIP3 OH2  OT           -0.834       15.9994       0
    4159 TIP3 1306 TIP3 H1   HT            0.417         1.008       0
    4160 TIP3 1306 TIP3 H2   HT            0.417         1.008       0
    4161 TIP3 1307 TIP3 OH2  OT           -0.834       15.9994       0
    4162 TIP3 1307 TIP3 H1   HT            0.417         1.008       0
    4163 TIP3 1307 TIP3 H2   HT            0.417         1.008       0
    4164 TIP3 1308 TIP3 OH2  OT           -0.834       15.9994       0
    4165 TIP3 1308 TIP3 H1   HT            0.417         1.008       0
    4166 TIP3 1308 TIP3 H2   HT            0.417         1.008       0
    4167 TIP3 1309 TIP3 OH2  OT           -0.834       15.9994       0
    4168 TIP3 1309 TIP3 H1   HT            0.417         1.008       0
    4169 TIP3 1309 TIP3 H2   HT            0.417         1.008       0
    4170 TIP3 1310 TIP3 OH2  OT           -0.834       15.9994       0
    4171 TIP3 1310 TIP3 H1   HT            0.417         1.008       0
    4172 TIP3 1310 TIP3 H2   HT            0.417         1.008       0
    4173 TIP3 1311 TIP3 OH2  OT           -0.834       15.9994       0
    4174 TIP3 1311 TIP3 H1   HT            0.417         1.008       0
    4175 TIP3 1311 TIP3 H2   HT            0.417         1.008       0
    4176 TIP3 1312 TIP3 OH2  OT           -0.834       15.9994       0
    4177 TIP3 1312 TIP3 H1   HT            0.417         1.008       0
    4178 TIP3 1312 TIP3 H2   HT            0.417         1.008       0
    4179 TIP3 1313 TIP3 OH2  OT           -0.834       15.9994       0
    4180 TIP3 1313 TIP3 H1   HT            0.417         1.008       0
    4181 TIP3 1313 TIP3 H2   HT            0.417         1.008       0
    4182 TIP3 1314 TIP3 OH2  OT           -0.834       15.9994       0
    4183 TIP3 1314 TIP3 H1   HT            0.417         1.008       0
    4184 TIP3 1314 TIP3 H2   HT            0.417         1.008       0
    4185 TIP3 1315 TIP3 OH2  OT           -0.834       15.9994       0
    4186 TIP3 1315 TIP3 H1   HT            0.417         1.008       0
    4187 TIP3 1315 TIP3 H2   HT            0.417         1.008       0
    4188 TIP3 1316 TIP3 OH2  OT           -0.834       15.9994       0
    4189 TIP3 1316 TIP3 H1   HT            0.417         1.008       0
    4190 TIP3 1316 TIP3 H2   HT            0.417         1.008       0
    4191 TIP3 1317 TIP3 OH2  OT           -0.834       15.9994       0
    4192 TIP3 1317 TIP3 H1   HT            0.417         1.008       0
    4193 TIP3 1317 TIP3 H2   HT            0.417         1.008       0
    4194 TIP3 1318 TIP3 OH2  OT           -0.834       15.9994       0
    4195 TIP3 1318 TIP3 H1   HT            0.417         1.008       0
    4196 TIP3 1318 TIP3 H2   HT            0.417         1.008       0
    4197 TIP3 1319 TIP3 OH2  OT           -0.834       15.9994       0
    4198 TIP3 1319 TIP3 H1   HT            0.417         1.008       0
    4199 TIP3 1319 TIP3 H2   HT            0.417         1.008       0
    4200 TIP3 1320 TIP3 OH2  OT           -0.834       15.9994       0
    4201 TIP3 1320 TIP3 H1   HT            0.417         1.008       0
    4202 TIP3 1320 TIP3 H2   HT            0.417         1.008       0
    4203 TIP3 1321 TIP3 OH2  OT           -0.834       15.9994       0
    4204 TIP3 1321 TIP3 H1   HT            0.417         1.008       0
    4205 TIP3 1321 TIP3 H2   HT            0.417         1.008       0
    4206 TIP3 1322 TIP3 OH2  OT           -0.834       15.9994       0
    4207 TIP3 1322 TIP3 H1   HT            0.417         1.008       0
    4208 TIP3 1322 TIP3 H2   HT            0.417         1.008       0
    4209 TIP3 1323 TIP3 OH2  OT           -0.834       15.9994       0
    4210 TIP3 1323 TIP3 H1   HT            0.417         1.008       0
    4211 TIP3 1323 TIP3 H2   HT            0.417         1.008       0
    4212 TIP3 1324 TIP3 OH2  OT           -0.834       15.9994       0
    4213 TIP3 1324 TIP3 H1   HT            0.417         1.008       0
    4214 TIP3 1324 TIP3 H2   HT            0.417         1.008       0
    4215 TIP3 1325 TIP3 OH2  OT           -0.834       15.9994       0
    4216 TIP3 1325 TIP3 H1   HT            0.417         1.008       0
    4217 TIP3 1325 TIP3 H2   HT            0.417         1.008       0
    4218 TIP3 1326 TIP3 OH2  OT           -0.834       15.9994       0
    4219 TIP3 1326 TIP3 H1   HT            0.417         1.008       0
    4220 TIP3 1326 TIP3 H2   HT            0.417         1.008       0
    4221 TIP3 1327 TIP3 OH2  OT           -0.834       15.9994       0
    4222 TIP3 1327 TIP3 H1   HT            0.417         1.008       0
    4223 TIP3 1327 TIP3 H2   HT            0.417         1.008       0
    4224 TIP3 1328 TIP3 OH2  OT           -0.834       15.9994       0
    4225 TIP3 1328 TIP3 H1   HT            0.417         1.008       0
    4226 TIP3 1328 TIP3 H2   HT            0.417         1.008       0
    4227 TIP3 1329 TIP3 OH2  OT           -0.834       15.9994       0
    4228 TIP3 1329 TIP3 H1   HT            0.417         1.008       0
    4229 TIP3 1329 TIP3 H2   HT            0.417         1.008       0
    4230 TIP3 1330 TIP3 OH2  OT           -0.834       15.9994       0
    4231 TIP3 1330 TIP3 H1   HT            0.417         1.008       0
    4232 TIP3 1330 TIP3 H2   HT            0.417         1.008       0
    4233 TIP3 1331 TIP3 OH2  OT           -0.834       15.9994       0
    4234 TIP3 1331 TIP3 H1   HT            0.417         1.008       0
    4235 TIP3 1331 TIP3 H2   HT            0.417         1.008       0
    4236 TIP3 1332 TIP3 OH2  OT           -0.834       15.9994       0
    4237 TIP3 1332 TIP3 H1   HT            0.417         1.008       0
    4238 TIP3 1332 TIP3 H2   HT            0.417         1.008       0
    4239 TIP3 1333 TIP3 OH2  OT           -0.834       15.9994       0
    4240 TIP3 1333 TIP3 H1   HT            0.417         1.008       0
    4241 TIP3 1333 TIP3 H2   HT            0.417         1.008       0
    4242 TIP3 1334 TIP3 OH2  OT           -0.834       15.9994       0
    4243 TIP3 1334 TIP3 H1   HT            0.417         1.008       0
    4244 TIP3 1334 TIP3 H2   HT            0.417         1.008       0
    4245 TIP3 1335 TIP3 OH2  OT           -0.834       15.9994       0
    4246 TIP3 1335 TIP3 H1   HT            0.417         1.008       0
    4247 TIP3 1335 TIP3 H2   HT            0.417         1.008       0
    4248 TIP3 1336 TIP3 OH2  OT           -0.834       15.9994       0
    4249 TIP3 1336 TIP3 H1   HT            0.417         1.008       0
    4250 TIP3 1336 TIP3 H2   HT            0.417         1.008       0
    4251 TIP3 1337 TIP3 OH2  OT           -0.834       15.9994       0
    4252 TIP3 1337 TIP3 H1   HT            0.417         1.008       0
    4253 TIP3 1337 TIP3 H2   HT            0.417         1.008       0
    4254 TIP3 1338 TIP3 OH2  OT           -0.834       15.9994       0
    4255 TIP3 1338 TIP3 H1   HT            0.417         1.008       0
    4256 TIP3 1338 TIP3 H2   HT            0.417         1.008       0
    4257 TIP3 1339 TIP3 OH2  OT           -0.834       15.9994       0
    4258 TIP3 1339 TIP3 H1   HT            0.417         1.008       0
    4259 TIP3 1339 TIP3 H2   HT            0.417         1.008       0
    4260 TIP3 1340 TIP3 OH2  OT           -0.834       15.9994       0
    4261 TIP3 1340 TIP3 H1   HT            0.417         1.008       0
    4262 TIP3 1340 TIP3 H2   HT            0.417         1.008       0
    4263 TIP3 1341 TIP3 OH2  OT           -0.834       15.9994       0
    4264 TIP3 1341 TIP3 H1   HT            0.417         1.008       0
    4265 TIP3 1341 TIP3 H2   HT            0.417         1.008       0
    4266 TIP3 1342 TIP3 OH2  OT           -0.834       15.9994       0
    4267 TIP3 1342 TIP3 H1   HT            0.417         1.008       0
    4268 TIP3 1342 TIP3 H2   HT            0.417         1.008       0
    4269 TIP3 1343 TIP3 OH2  OT           -0.834       15.9994       0
    4270 TIP3 1343 TIP3 H1   HT            0.417         1.008       0
    4271 TIP3 1343 TIP3 H2   HT            0.417         1.008       0
    4272 TIP3 1344 TIP3 OH2  OT           -0.834       15.9994       0
    4273 TIP3 1344 TIP3 H1   HT            0.417         1.008       0
    4274 TIP3 1344 TIP3 H2   HT            0.417         1.008       0
    4275 TIP3 1345 TIP3 OH2  OT           -0.834       15.9994       0
    4276 TIP3 1345 TIP3 H1   HT            0.417         1.008       0
    4277 TIP3 1345 TIP3 H2   HT            0.417         1.008       0
    4278 TIP3 1346 TIP3 OH2  OT           -0.834       15.9994       0
    4279 TIP3 1346 TIP3 H1   HT            0.417         1.008       0
    4280 TIP3 1346 TIP3 H2   HT            0.417         1.008       0
    4281 TIP3 1347 TIP3 OH2  OT           -0.834       15.9994       0
    4282 TIP3 1347 TIP3 H1   HT            0.417         1.008       0
    4283 TIP3 1347 TIP3 H2   HT            0.417         1.008       0
    4284 TIP3 1348 TIP3 OH2  OT           -0.834       15.9994       0
    4285 TIP3 1348 TIP3 H1   HT            0.417         1.008       0
    4286 TIP3 1348 TIP3 H2   HT            0.417         1.008       0
    4287 TIP3 1349 TIP3 OH2  OT           -0.834       15.9994       0
    4288 TIP3 1349 TIP3 H1   HT            0.417         1.008       0
    4289 TIP3 1349 TIP3 H2   HT            0.417         1.008       0
    4290 TIP3 1350 TIP3 OH2  OT           -0.834       15.9994       0
    4291 TIP3 1350 TIP3 H1   HT            0.417         1.008       0
    4292 TIP3 1350 TIP3 H2   HT            0.417         1.008       0
    4293 TIP3 1351 TIP3 OH2  OT           -0.834       15.9994       0
    4294 TIP3 1351 TIP3 H1   HT            0.417         1.008       0
    4295 TIP3 1351 TIP3 H2   HT            0.417         1.008       0
    4296 TIP3 1352 TIP3 OH2  OT           -0.834       15.9994       0
    4297 TIP3 1352 TIP3 H1   HT            0.417         1.008       0
    4298 TIP3 1352 TIP3 H2   HT            0.417         1.008       0
    4299 TIP3 1353 TIP3 OH2  OT           -0.834       15.9994       0
    4300 TIP3 1353 TIP3 H1   HT            0.417         1.008       0
    4301 TIP3 1353 TIP3 H2   HT            0.417         1.008       0
    4302 TIP3 1354 TIP3 OH2  OT           -0.834       15.9994       0
    4303 TIP3 1354 TIP3 H1   HT            0.417         1.008       0
    4304 TIP3 1354 TIP3 H2   HT            0.417         1.008       0
    4305 TIP3 1355 TIP3 OH2  OT           -0.834       15.9994       0
    4306 TIP3 1355 TIP3 H1   HT            0.417         1.008       0
    4307 TIP3 1355 TIP3 H2   HT            0.417         1.008       0
    4308 TIP3 1356 TIP3 OH2  OT           -0.834       15.9994       0
    4309 TIP3 1356 TIP3 H1   HT            0.417         1.008       0
    4310 TIP3 1356 TIP3 H2   HT            0.417         1.008       0
    4311 TIP3 1357 TIP3 OH2  OT           -0.834       15.9994       0
    4312 TIP3 1357 TIP3 H1   HT            0.417         1.008       0
    4313 TIP3 1357 TIP3 H2   HT            0.417         1.008       0
    4314 TIP3 1358 TIP3 OH2  OT           -0.834       15.9994       0
    4315 TIP3 1358 TIP3 H1   HT            0.417         1.008       0
    4316 TIP3 1358 TIP3 H2   HT            0.417         1.008       0
    4317 TIP3 1359 TIP3 OH2  OT           -0.834       15.9994       0
    4318 TIP3 1359 TIP3 H1   HT            0.417         1.008       0
    4319 TIP3 1359 TIP3 H2   HT            0.417         1.008       0
    4320 TIP3 1360 TIP3 OH2  OT           -0.834       15.9994       0
    4321 TIP3 1360 TIP3 H1   HT            0.417         1.008       0
    4322 TIP3 1360 TIP3 H2   HT            0.417         1.008       0
    4323 TIP3 1361 TIP3 OH2  OT           -0.834       15.9994       0
    4324 TIP3 1361 TIP3 H1   HT            0.417         1.008       0
    4325 TIP3 1361 TIP3 H2   HT            0.417         1.008       0
    4326 TIP3 1362 TIP3 OH2  OT           -0.834       15.9994       0
    4327 TIP3 1362 TIP3 H1   HT            0.417         1.008       0
    4328 TIP3 1362 TIP3 H2   HT            0.417         1.008       0
    4329 TIP3 1363 TIP3 OH2  OT           -0.834       15.9994       0
    4330 TIP3 1363 TIP3 H1   HT            0.417         1.008       0
    4331 TIP3 1363 TIP3 H2   HT            0.417         1.008       0
    4332 TIP3 1364 TIP3 OH2  OT           -0.834       15.9994       0
    4333 TIP3 1364 TIP3 H1   HT            0.417         1.008       0
    4334 TIP3 1364 TIP3 H2   HT            0.417         1.008       0
    4335 TIP3 1365 TIP3 OH2  OT           -0.834       15.9994       0
    4336 TIP3 1365 TIP3 H1   HT            0.417         1.008       0
    4337 TIP3 1365 TIP3 H2   HT            0.417         1.008       0
    4338 TIP3 1366 TIP3 OH2  OT           -0.834       15.9994       0
    4339 TIP3 1366 TIP3 H1   HT            0.417         1.008       0
    4340 TIP3 1366 TIP3 H2   HT            0.417         1.008       0
    4341 TIP3 1367 TIP3 OH2  OT           -0.834       15.9994       0
    4342 TIP3 1367 TIP3 H1   HT            0.417         1.008       0
    4343 TIP3 1367 TIP3 H2   HT            0.417         1.008       0
    4344 TIP3 1368 TIP3 OH2  OT           -0.834       15.9994       0
    4345 TIP3 1368 TIP3 H1   HT            0.417         1.008       0
    4346 TIP3 1368 TIP3 H2   HT            0.417         1.008       0
    4347 TIP3 1369 TIP3 OH2  OT           -0.834       15.9994       0
    4348 TIP3 1369 TIP3 H1   HT            0.417         1.008       0
    4349 TIP3 1369 TIP3 H2   HT            0.417         1.008       0
    4350 TIP3 1370 TIP3 OH2  OT           -0.834       15.9994       0
    4351 TIP3 1370 TIP3 H1   HT            0.417         1.008       0
    4352 TIP3 1370 TIP3 H2   HT            0.417         1.008       0
    4353 TIP3 1371 TIP3 OH2  OT           -0.834       15.9994       0
    4354 TIP3 1371 TIP3 H1   HT            0.417         1.008       0
    4355 TIP3 1371 TIP3 H2   HT            0.417         1.008       0
    4356 TIP3 1372 TIP3 OH2  OT           -0.834       15.9994       0
    4357 TIP3 1372 TIP3 H1   HT            0.417         1.008       0
    4358 TIP3 1372 TIP3 H2   HT            0.417         1.008       0
    4359 TIP3 1373 TIP3 OH2  OT           -0.834       15.9994       0
    4360 TIP3 1373 TIP3 H1   HT            0.417         1.008       0
    4361 TIP3 1373 TIP3 H2   HT            0.417         1.008       0
    4362 TIP3 1374 TIP3 OH2  OT           -0.834       15.9994       0
    4363 TIP3 1374 TIP3 H1   HT            0.417         1.008       0
    4364 TIP3 1374 TIP3 H2   HT            0.417         1.008       0
    4365 TIP3 1375 TIP3 OH2  OT           -0.834       15.9994       0
    4366 TIP3 1375 TIP3 H1   HT            0.417         1.008       0
    4367 TIP3 1375 TIP3 H2   HT            0.417         1.008       0
    4368 TIP3 1376 TIP3 OH2  OT           -0.834       15.9994       0
    4369 TIP3 1376 TIP3 H1   HT            0.417         1.008       0
    4370 TIP3 1376 TIP3 H2   HT            0.417         1.008       0
    4371 TIP3 1377 TIP3 OH2  OT           -0.834       15.9994       0
    4372 TIP3 1377 TIP3 H1   HT            0.417         1.008       0
    4373 TIP3 1377 TIP3 H2   HT            0.417         1.008       0
    4374 TIP3 1378 TIP3 OH2  OT           -0.834       15.9994       0
    4375 TIP3 1378 TIP3 H1   HT            0.417         1.008       0
    4376 TIP3 1378 TIP3 H2   HT            0.417         1.008       0
    4377 TIP3 1379 TIP3 OH2  OT           -0.834       15.9994       0
    4378 TIP3 1379 TIP3 H1   HT            0.417         1.008       0
    4379 TIP3 1379 TIP3 H2   HT            0.417         1.008       0
    4380 TIP3 1380 TIP3 OH2  OT           -0.834       15.9994       0
    4381 TIP3 1380 TIP3 H1   HT            0.417         1.008       0
    4382 TIP3 1380 TIP3 H2   HT            0.417         1.008       0
    4383 TIP3 1381 TIP3 OH2  OT           -0.834       15.9994       0
    4384 TIP3 1381 TIP3 H1   HT            0.417         1.008       0
    4385 TIP3 1381 TIP3 H2   HT            0.417         1.008       0
    4386 TIP3 1382 TIP3 OH2  OT           -0.834       15.9994       0
    4387 TIP3 1382 TIP3 H1   HT            0.417         1.008       0
    4388 TIP3 1382 TIP3 H2   HT            0.417         1.008       0
    4389 TIP3 1383 TIP3 OH2  OT           -0.834       15.9994       0
    4390 TIP3 1383 TIP3 H1   HT            0.417         1.008       0
    4391 TIP3 1383 TIP3 H2   HT            0.417         1.008       0
    4392 TIP3 1384 TIP3 OH2  OT           -0.834       15.9994       0
    4393 TIP3 1384 TIP3 H1   HT            0.417         1.008       0
    4394 TIP3 1384 TIP3 H2   HT            0.417         1.008       0
    4395 TIP3 1385 TIP3 OH2  OT           -0.834       15.9994       0
    4396 TIP3 1385 TIP3 H1   HT            0.417         1.008       0
    4397 TIP3 1385 TIP3 H2   HT            0.417         1.008       0
    4398 TIP3 1386 TIP3 OH2  OT           -0.834       15.9994       0
    4399 TIP3 1386 TIP3 H1   HT            0.417         1.008       0
    4400 TIP3 1386 TIP3 H2   HT            0.417         1.008       0
    4401 TIP3 1387 TIP3 OH2  OT           -0.834       15.9994       0
    4402 TIP3 1387 TIP3 H1   HT            0.417         1.008       0
    4403 TIP3 1387 TIP3 H2   HT            0.417         1.008       0
    4404 TIP3 1388 TIP3 OH2  OT           -0.834       15.9994       0
    4405 TIP3 1388 TIP3 H1   HT            0.417         1.008       0
    4406 TIP3 1388 TIP3 H2   HT            0.417         1.008       0
    4407 TIP3 1389 TIP3 OH2  OT           -0.834       15.9994       0
    4408 TIP3 1389 TIP3 H1   HT            0.417         1.008       0
    4409 TIP3 1389 TIP3 H2   HT            0.417         1.008       0
    4410 TIP3 1390 TIP3 OH2  OT           -0.834       15.9994       0
    4411 TIP3 1390 TIP3 H1   HT            0.417         1.008       0
    4412 TIP3 1390 TIP3 H2   HT            0.417         1.008       0
    4413 TIP3 1391 TIP3 OH2  OT           -0.834       15.9994       0
    4414 TIP3 1391 TIP3 H1   HT            0.417         1.008       0
    4415 TIP3 1391 TIP3 H2   HT            0.417         1.008       0
    4416 TIP3 1392 TIP3 OH2  OT           -0.834       15.9994       0
    4417 TIP3 1392 TIP3 H1   HT            0.417         1.008       0
    4418 TIP3 1392 TIP3 H2   HT            0.417         1.008       0
    4419 TIP3 1393 TIP3 OH2  OT           -0.834       15.9994       0
    4420 TIP3 1393 TIP3 H1   HT            0.417         1.008       0
    4421 TIP3 1393 TIP3 H2   HT            0.417         1.008       0
    4422 TIP3 1394 TIP3 OH2  OT           -0.834       15.9994       0
    4423 TIP3 1394 TIP3 H1   HT            0.417         1.008       0
    4424 TIP3 1394 TIP3 H2   HT            0.417         1.008       0
    4425 TIP3 1395 TIP3 OH2  OT           -0.834       15.9994       0
    4426 TIP3 1395 TIP3 H1   HT            0.417         1.008       0
    4427 TIP3 1395 TIP3 H2   HT            0.417         1.008       0
    4428 TIP3 1396 TIP3 OH2  OT           -0.834       15.9994       0
    4429 TIP3 1396 TIP3 H1   HT            0.417         1.008       0
    4430 TIP3 1396 TIP3 H2   HT            0.417         1.008       0
    4431 TIP3 1397 TIP3 OH2  OT           -0.834       15.9994       0
    4432 TIP3 1397 TIP3 H1   HT            0.417         1.008       0
    4433 TIP3 1397 TIP3 H2   HT            0.417         1.008       0
    4434 TIP3 1398 TIP3 OH2  OT           -0.834       15.9994       0
    4435 TIP3 1398 TIP3 H1   HT            0.417         1.008       0
    4436 TIP3 1398 TIP3 H2   HT            0.417         1.008       0
    4437 TIP3 1399 TIP3 OH2  OT           -0.834       15.9994       0
    4438 TIP3 1399 TIP3 H1   HT            0.417         1.008       0
    4439 TIP3 1399 TIP3 H2   HT            0.417         1.008       0
    4440 TIP3 1400 TIP3 OH2  OT           -0.834       15.9994       0
    4441 TIP3 1400 TIP3 H1   HT            0.417         1.008       0
    4442 TIP3 1400 TIP3 H2   HT            0.417         1.008       0
    4443 TIP3 1401 TIP3 OH2  OT           -0.834       15.9994       0
    4444 TIP3 1401 TIP3 H1   HT            0.417         1.008       0
    4445 TIP3 1401 TIP3 H2   HT            0.417         1.008       0
    4446 TIP3 1402 TIP3 OH2  OT           -0.834       15.9994       0
    4447 TIP3 1402 TIP3 H1   HT            0.417         1.008       0
    4448 TIP3 1402 TIP3 H2   HT            0.417         1.008       0
    4449 TIP3 1403 TIP3 OH2  OT           -0.834       15.9994       0
    4450 TIP3 1403 TIP3 H1   HT            0.417         1.008       0
    4451 TIP3 1403 TIP3 H2   HT            0.417         1.008       0
    4452 TIP3 1404 TIP3 OH2  OT           -0.834       15.9994       0
    4453 TIP3 1404 TIP3 H1   HT            0.417         1.008       0
    4454 TIP3 1404 TIP3 H2   HT            0.417         1.008       0
    4455 TIP3 1405 TIP3 OH2  OT           -0.834       15.9994       0
    4456 TIP3 1405 TIP3 H1   HT            0.417         1.008       0
    4457 TIP3 1405 TIP3 H2   HT            0.417         1.008       0
    4458 TIP3 1406 TIP3 OH2  OT           -0.834       15.9994       0
    4459 TIP3 1406 TIP3 H1   HT            0.417         1.008       0
    4460 TIP3 1406 TIP3 H2   HT            0.417         1.008       0
    4461 TIP3 1407 TIP3 OH2  OT           -0.834       15.9994       0
    4462 TIP3 1407 TIP3 H1   HT            0.417         1.008       0
    4463 TIP3 1407 TIP3 H2   HT            0.417         1.008       0
    4464 TIP3 1408 TIP3 OH2  OT           -0.834       15.9994       0
    4465 TIP3 1408 TIP3 H1   HT            0.417         1.008       0
    4466 TIP3 1408 TIP3 H2   HT            0.417         1.008       0
    4467 TIP3 1409 TIP3 OH2  OT           -0.834       15.9994       0
    4468 TIP3 1409 TIP3 H1   HT            0.417         1.008       0
    4469 TIP3 1409 TIP3 H2   HT            0.417         1.008       0
    4470 TIP3 1410 TIP3 OH2  OT           -0.834       15.9994       0
    4471 TIP3 1410 TIP3 H1   HT            0.417         1.008       0
    4472 TIP3 1410 TIP3 H2   HT            0.417         1.008       0
    4473 TIP3 1411 TIP3 OH2  OT           -0.834       15.9994       0
    4474 TIP3 1411 TIP3 H1   HT            0.417         1.008       0
    4475 TIP3 1411 TIP3 H2   HT            0.417         1.008       0
    4476 TIP3 1412 TIP3 OH2  OT           -0.834       15.9994       0
    4477 TIP3 1412 TIP3 H1   HT            0.417         1.008       0
    4478 TIP3 1412 TIP3 H2   HT            0.417         1.008       0
    4479 TIP3 1413 TIP3 OH2  OT           -0.834       15.9994       0
    4480 TIP3 1413 TIP3 H1   HT            0.417         1.008       0
    4481 TIP3 1413 TIP3 H2   HT            0.417         1.008       0
    4482 TIP3 1414 TIP3 OH2  OT           -0.834       15.9994       0
    4483 TIP3 1414 TIP3 H1   HT            0.417         1.008       0
    4484 TIP3 1414 TIP3 H2   HT            0.417         1.008       0
    4485 TIP3 1415 TIP3 OH2  OT           -0.834       15.9994       0
    4486 TIP3 1415 TIP3 H1   HT            0.417         1.008       0
    4487 TIP3 1415 TIP3 H2   HT            0.417         1.008       0
    4488 TIP3 1416 TIP3 OH2  OT           -0.834       15.9994       0
    4489 TIP3 1416 TIP3 H1   HT            0.417         1.008       0
    4490 TIP3 1416 TIP3 H2   HT            0.417         1.008       0
    4491 TIP3 1417 TIP3 OH2  OT           -0.834       15.9994       0
    4492 TIP3 1417 TIP3 H1   HT            0.417         1.008       0
    4493 TIP3 1417 TIP3 H2   HT            0.417         1.008       0
    4494 TIP3 1418 TIP3 OH2  OT           -0.834       15.9994       0
    4495 TIP3 1418 TIP3 H1   HT            0.417         1.008       0
    4496 TIP3 1418 TIP3 H2   HT            0.417         1.008       0
    4497 TIP3 1419 TIP3 OH2  OT           -0.834       15.9994       0
    4498 TIP3 1419 TIP3 H1   HT            0.417         1.008       0
    4499 TIP3 1419 TIP3 H2   HT            0.417         1.008       0
    4500 TIP3 1420 TIP3 OH2  OT           -0.834       15.9994       0
    4501 TIP3 1420 TIP3 H1   HT            0.417         1.008       0
    4502 TIP3 1420 TIP3 H2   HT            0.417         1.008       0
    4503 TIP3 1421 TIP3 OH2  OT           -0.834       15.9994       0
    4504 TIP3 1421 TIP3 H1   HT            0.417         1.008       0
    4505 TIP3 1421 TIP3 H2   HT            0.417         1.008       0
    4506 TIP3 1422 TIP3 OH2  OT           -0.834       15.9994       0
    4507 TIP3 1422 TIP3 H1   HT            0.417         1.008       0
    4508 TIP3 1422 TIP3 H2   HT            0.417         1.008       0
    4509 TIP3 1423 TIP3 OH2  OT           -0.834       15.9994       0
    4510 TIP3 1423 TIP3 H1   HT            0.417         1.008       0
    4511 TIP3 1423 TIP3 H2   HT            0.417         1.008       0
    4512 TIP3 1424 TIP3 OH2  OT           -0.834       15.9994       0
    4513 TIP3 1424 TIP3 H1   HT            0.417         1.008       0
    4514 TIP3 1424 TIP3 H2   HT            0.417         1.008       0
    4515 TIP3 1425 TIP3 OH2  OT           -0.834       15.9994       0
    4516 TIP3 1425 TIP3 H1   HT            0.417         1.008       0
    4517 TIP3 1425 TIP3 H2   HT            0.417         1.008       0
    4518 TIP3 1426 TIP3 OH2  OT           -0.834       15.9994       0
    4519 TIP3 1426 TIP3 H1   HT            0.417         1.008       0
    4520 TIP3 1426 TIP3 H2   HT            0.417         1.008       0
    4521 TIP3 1427 TIP3 OH2  OT           -0.834       15.9994       0
    4522 TIP3 1427 TIP3 H1   HT            0.417         1.008       0
    4523 TIP3 1427 TIP3 H2   HT            0.417         1.008       0
    4524 TIP3 1428 TIP3 OH2  OT           -0.834       15.9994       0
    4525 TIP3 1428 TIP3 H1   HT            0.417         1.008       0
    4526 TIP3 1428 TIP3 H2   HT            0.417         1.008       0
    4527 TIP3 1429 TIP3 OH2  OT           -0.834       15.9994       0
    4528 TIP3 1429 TIP3 H1   HT            0.417         1.008       0
    4529 TIP3 1429 TIP3 H2   HT            0.417         1.008       0
    4530 TIP3 1430 TIP3 OH2  OT           -0.834       15.9994       0
    4531 TIP3 1430 TIP3 H1   HT            0.417         1.008       0
    4532 TIP3 1430 TIP3 H2   HT            0.417         1.008       0
    4533 TIP3 1431 TIP3 OH2  OT           -0.834       15.9994       0
    4534 TIP3 1431 TIP3 H1   HT            0.417         1.008       0
    4535 TIP3 1431 TIP3 H2   HT            0.417         1.008       0
    4536 TIP3 1432 TIP3 OH2  OT           -0.834       15.9994       0
    4537 TIP3 1432 TIP3 H1   HT            0.417         1.008       0
    4538 TIP3 1432 TIP3 H2   HT            0.417         1.008       0
    4539 TIP3 1433 TIP3 OH2  OT           -0.834       15.9994       0
    4540 TIP3 1433 TIP3 H1   HT            0.417         1.008       0
    4541 TIP3 1433 TIP3 H2   HT            0.417         1.008       0
    4542 TIP3 1434 TIP3 OH2  OT           -0.834       15.9994       0
    4543 TIP3 1434 TIP3 H1   HT            0.417         1.008       0
    4544 TIP3 1434 TIP3 H2   HT            0.417         1.008       0
    4545 TIP3 1435 TIP3 OH2  OT           -0.834       15.9994       0
    4546 TIP3 1435 TIP3 H1   HT            0.417         1.008       0
    4547 TIP3 1435 TIP3 H2   HT            0.417         1.008       0
    4548 TIP3 1436 TIP3 OH2  OT           -0.834       15.9994       0
    4549 TIP3 1436 TIP3 H1   HT            0.417         1.008       0
    4550 TIP3 1436 TIP3 H2   HT            0.417         1.008       0
    4551 TIP3 1437 TIP3 OH2  OT           -0.834       15.9994       0
    4552 TIP3 1437 TIP3 H1   HT            0.417         1.008       0
    4553 TIP3 1437 TIP3 H2   HT            0.417         1.008       0
    4554 TIP3 1438 TIP3 OH2  OT           -0.834       15.9994       0
    4555 TIP3 1438 TIP3 H1   HT            0.417         1.008       0
    4556 TIP3 1438 TIP3 H2   HT            0.417         1.008       0
    4557 TIP3 1439 TIP3 OH2  OT           -0.834       15.9994       0
    4558 TIP3 1439 TIP3 H1   HT            0.417         1.008       0
    4559 TIP3 1439 TIP3 H2   HT            0.417         1.008       0
    4560 TIP3 1440 TIP3 OH2  OT           -0.834       15.9994       0
    4561 TIP3 1440 TIP3 H1   HT            0.417         1.008       0
    4562 TIP3 1440 TIP3 H2   HT            0.417         1.008       0
    4563 TIP3 1441 TIP3 OH2  OT           -0.834       15.9994       0
    4564 TIP3 1441 TIP3 H1   HT            0.417         1.008       0
    4565 TIP3 1441 TIP3 H2   HT            0.417         1.008       0
    4566 TIP3 1442 TIP3 OH2  OT           -0.834       15.9994       0
    4567 TIP3 1442 TIP3 H1   HT            0.417         1.008       0
    4568 TIP3 1442 TIP3 H2   HT            0.417         1.008       0
    4569 TIP3 1443 TIP3 OH2  OT           -0.834       15.9994       0
    4570 TIP3 1443 TIP3 H1   HT            0.417         1.008       0
    4571 TIP3 1443 TIP3 H2   HT            0.417         1.008       0
    4572 TIP3 1444 TIP3 OH2  OT           -0.834       15.9994       0
    4573 TIP3 1444 TIP3 H1   HT            0.417         1.008       0
    4574 TIP3 1444 TIP3 H2   HT            0.417         1.008       0
    4575 TIP3 1445 TIP3 OH2  OT           -0.834       15.9994       0
    4576 TIP3 1445 TIP3 H1   HT            0.417         1.008       0
    4577 TIP3 1445 TIP3 H2   HT            0.417         1.008       0
    4578 TIP3 1446 TIP3 OH2  OT           -0.834       15.9994       0
    4579 TIP3 1446 TIP3 H1   HT            0.417         1.008       0
    4580 TIP3 1446 TIP3 H2   HT            0.417         1.008       0
    4581 TIP3 1447 TIP3 OH2  OT           -0.834       15.9994       0
    4582 TIP3 1447 TIP3 H1   HT            0.417         1.008       0
    4583 TIP3 1447 TIP3 H2   HT            0.417         1.008       0
    4584 TIP3 1448 TIP3 OH2  OT           -0.834       15.9994       0
    4585 TIP3 1448 TIP3 H1   HT            0.417         1.008       0
    4586 TIP3 1448 TIP3 H2   HT            0.417         1.008       0
    4587 TIP3 1449 TIP3 OH2  OT           -0.834       15.9994       0
    4588 TIP3 1449 TIP3 H1   HT            0.417         1.008       0
    4589 TIP3 1449 TIP3 H2   HT            0.417         1.008       0
    4590 TIP3 1450 TIP3 OH2  OT           -0.834       15.9994       0
    4591 TIP3 1450 TIP3 H1   HT            0.417         1.008       0
    4592 TIP3 1450 TIP3 H2   HT            0.417         1.008       0
    4593 TIP3 1451 TIP3 OH2  OT           -0.834       15.9994       0
    4594 TIP3 1451 TIP3 H1   HT            0.417         1.008       0
    4595 TIP3 1451 TIP3 H2   HT            0.417         1.008       0
    4596 TIP3 1452 TIP3 OH2  OT           -0.834       15.9994       0
    4597 TIP3 1452 TIP3 H1   HT            0.417         1.008       0
    4598 TIP3 1452 TIP3 H2   HT            0.417         1.008       0
    4599 TIP3 1453 TIP3 OH2  OT           -0.834       15.9994       0
    4600 TIP3 1453 TIP3 H1   HT            0.417         1.008       0
    4601 TIP3 1453 TIP3 H2   HT            0.417         1.008       0
    4602 TIP3 1454 TIP3 OH2  OT           -0.834       15.9994       0
    4603 TIP3 1454 TIP3 H1   HT            0.417         1.008       0
    4604 TIP3 1454 TIP3 H2   HT            0.417         1.008       0
    4605 TIP3 1455 TIP3 OH2  OT           -0.834       15.9994       0
    4606 TIP3 1455 TIP3 H1   HT            0.417         1.008       0
    4607 TIP3 1455 TIP3 H2   HT            0.417         1.008       0
    4608 TIP3 1456 TIP3 OH2  OT           -0.834       15.9994       0
    4609 TIP3 1456 TIP3 H1   HT            0.417         1.008       0
    4610 TIP3 1456 TIP3 H2   HT            0.417         1.008       0
    4611 TIP3 1457 TIP3 OH2  OT           -0.834       15.9994       0
    4612 TIP3 1457 TIP3 H1   HT            0.417         1.008       0
    4613 TIP3 1457 TIP3 H2   HT            0.417         1.008       0
    4614 TIP3 1458 TIP3 OH2  OT           -0.834       15.9994       0
    4615 TIP3 1458 TIP3 H1   HT            0.417         1.008       0
    4616 TIP3 1458 TIP3 H2   HT            0.417         1.008       0
    4617 TIP3 1459 TIP3 OH2  OT           -0.834       15.9994       0
    4618 TIP3 1459 TIP3 H1   HT            0.417         1.008       0
    4619 TIP3 1459 TIP3 H2   HT            0.417         1.008       0
    4620 TIP3 1460 TIP3 OH2  OT           -0.834       15.9994       0
    4621 TIP3 1460 TIP3 H1   HT            0.417         1.008       0
    4622 TIP3 1460 TIP3 H2   HT            0.417         1.008       0
    4623 TIP3 1461 TIP3 OH2  OT           -0.834       15.9994       0
    4624 TIP3 1461 TIP3 H1   HT            0.417         1.008       0
    4625 TIP3 1461 TIP3 H2   HT            0.417         1.008       0
    4626 TIP3 1462 TIP3 OH2  OT           -0.834       15.9994       0
    4627 TIP3 1462 TIP3 H1   HT            0.417         1.008       0
    4628 TIP3 1462 TIP3 H2   HT            0.417         1.008       0
    4629 TIP3 1463 TIP3 OH2  OT           -0.834       15.9994       0
    4630 TIP3 1463 TIP3 H1   HT            0.417         1.008       0
    4631 TIP3 1463 TIP3 H2   HT            0.417         1.008       0
    4632 TIP3 1464 TIP3 OH2  OT           -0.834       15.9994       0
    4633 TIP3 1464 TIP3 H1   HT            0.417         1.008       0
    4634 TIP3 1464 TIP3 H2   HT            0.417         1.008       0
    4635 TIP3 1465 TIP3 OH2  OT           -0.834       15.9994       0
    4636 TIP3 1465 TIP3 H1   HT            0.417         1.008       0
    4637 TIP3 1465 TIP3 H2   HT            0.417         1.008       0
    4638 TIP3 1466 TIP3 OH2  OT           -0.834       15.9994       0
    4639 TIP3 1466 TIP3 H1   HT            0.417         1.008       0
    4640 TIP3 1466 TIP3 H2   HT            0.417         1.008       0
    4641 TIP3 1467 TIP3 OH2  OT           -0.834       15.9994       0
    4642 TIP3 1467 TIP3 H1   HT            0.417         1.008       0
    4643 TIP3 1467 TIP3 H2   HT            0.417         1.008       0
    4644 TIP3 1468 TIP3 OH2  OT           -0.834       15.9994       0
    4645 TIP3 1468 TIP3 H1   HT            0.417         1.008       0
    4646 TIP3 1468 TIP3 H2   HT            0.417         1.008       0
    4647 TIP3 1469 TIP3 OH2  OT           -0.834       15.9994       0
    4648 TIP3 1469 TIP3 H1   HT            0.417         1.008       0
    4649 TIP3 1469 TIP3 H2   HT            0.417         1.008       0
    4650 TIP3 1470 TIP3 OH2  OT           -0.834       15.9994       0
    4651 TIP3 1470 TIP3 H1   HT            0.417         1.008       0
    4652 TIP3 1470 TIP3 H2   HT            0.417         1.008       0
    4653 TIP3 1471 TIP3 OH2  OT           -0.834       15.9994       0
    4654 TIP3 1471 TIP3 H1   HT            0.417         1.008       0
    4655 TIP3 1471 TIP3 H2   HT            0.417         1.008       0
    4656 TIP3 1472 TIP3 OH2  OT           -0.834       15.9994       0
    4657 TIP3 1472 TIP3 H1   HT            0.417         1.008       0
    4658 TIP3 1472 TIP3 H2   HT            0.417         1.008       0
    4659 TIP3 1473 TIP3 OH2  OT           -0.834       15.9994       0
    4660 TIP3 1473 TIP3 H1   HT            0.417         1.008       0
    4661 TIP3 1473 TIP3 H2   HT            0.417         1.008       0
    4662 TIP3 1474 TIP3 OH2  OT           -0.834       15.9994       0
    4663 TIP3 1474 TIP3 H1   HT            0.417         1.008       0
    4664 TIP3 1474 TIP3 H2   HT            0.417         1.008       0
    4665 TIP3 1475 TIP3 OH2  OT           -0.834       15.9994       0
    4666 TIP3 1475 TIP3 H1   HT            0.417         1.008       0
    4667 TIP3 1475 TIP3 H2   HT            0.417         1.008       0
    4668 TIP3 1476 TIP3 OH2  OT           -0.834       15.9994       0
    4669 TIP3 1476 TIP3 H1   HT            0.417         1.008       0
    4670 TIP3 1476 TIP3 H2   HT            0.417         1.008       0
    4671 TIP3 1477 TIP3 OH2  OT           -0.834       15.9994       0
    4672 TIP3 1477 TIP3 H1   HT            0.417         1.008       0
    4673 TIP3 1477 TIP3 H2   HT            0.417         1.008       0
    4674 TIP3 1478 TIP3 OH2  OT           -0.834       15.9994       0
    4675 TIP3 1478 TIP3 H1   HT            0.417         1.008       0
    4676 TIP3 1478 TIP3 H2   HT            0.417         1.008       0
    4677 TIP3 1479 TIP3 OH2  OT           -0.834       15.9994       0
    4678 TIP3 1479 TIP3 H1   HT            0.417         1.008       0
    4679 TIP3 1479 TIP3 H2   HT            0.417         1.008       0
    4680 TIP3 1480 TIP3 OH2  OT           -0.834       15.9994       0
    4681 TIP3 1480 TIP3 H1   HT            0.417         1.008       0
    4682 TIP3 1480 TIP3 H2   HT            0.417         1.008       0
    4683 TIP3 1481 TIP3 OH2  OT           -0.834       15.9994       0
    4684 TIP3 1481 TIP3 H1   HT            0.417         1.008       0
    4685 TIP3 1481 TIP3 H2   HT            0.417         1.008       0
    4686 TIP3 1482 TIP3 OH2  OT           -0.834       15.9994       0
    4687 TIP3 1482 TIP3 H1   HT            0.417         1.008       0
    4688 TIP3 1482 TIP3 H2   HT            0.417         1.008       0
    4689 TIP3 1483 TIP3 OH2  OT           -0.834       15.9994       0
    4690 TIP3 1483 TIP3 H1   HT            0.417         1.008       0
    4691 TIP3 1483 TIP3 H2   HT            0.417         1.008       0
    4692 TIP3 1484 TIP3 OH2  OT           -0.834       15.9994       0
    4693 TIP3 1484 TIP3 H1   HT            0.417         1.008       0
    4694 TIP3 1484 TIP3 H2   HT            0.417         1.008       0
    4695 TIP3 1485 TIP3 OH2  OT           -0.834       15.9994       0
    4696 TIP3 1485 TIP3 H1   HT            0.417         1.008       0
    4697 TIP3 1485 TIP3 H2   HT            0.417         1.008       0
    4698 TIP3 1486 TIP3 OH2  OT           -0.834       15.9994       0
    4699 TIP3 1486 TIP3 H1   HT            0.417         1.008       0
    4700 TIP3 1486 TIP3 H2   HT            0.417         1.008       0
    4701 TIP3 1487 TIP3 OH2  OT           -0.834       15.9994       0
    4702 TIP3 1487 TIP3 H1   HT            0.417         1.008       0
    4703 TIP3 1487 TIP3 H2   HT            0.417         1.008       0
    4704 TIP3 1488 TIP3 OH2  OT           -0.834       15.9994       0
    4705 TIP3 1488 TIP3 H1   HT            0.417         1.008       0
    4706 TIP3 1488 TIP3 H2   HT            0.417         1.008       0
    4707 TIP3 1489 TIP3 OH2  OT           -0.834       15.9994       0
    4708 TIP3 1489 TIP3 H1   HT            0.417         1.008       0
    4709 TIP3 1489 TIP3 H2   HT            0.417         1.008       0
    4710 TIP3 1490 TIP3 OH2  OT           -0.834       15.9994       0
    4711 TIP3 1490 TIP3 H1   HT            0.417         1.008       0
    4712 TIP3 1490 TIP3 H2   HT            0.417         1.008       0
    4713 TIP3 1491 TIP3 OH2  OT           -0.834       15.9994       0
    4714 TIP3 1491 TIP3 H1   HT            0.417         1.008       0
    4715 TIP3 1491 TIP3 H2   HT            0.417         1.008       0
    4716 TIP3 1492 TIP3 OH2  OT           -0.834       15.9994       0
    4717 TIP3 1492 TIP3 H1   HT            0.417         1.008       0
    4718 TIP3 1492 TIP3 H2   HT            0.417         1.008       0
    4719 TIP3 1493 TIP3 OH2  OT           -0.834       15.9994       0
    4720 TIP3 1493 TIP3 H1   HT            0.417         1.008       0
    4721 TIP3 1493 TIP3 H2   HT            0.417         1.008       0
    4722 TIP3 1494 TIP3 OH2  OT           -0.834       15.9994       0
    4723 TIP3 1494 TIP3 H1   HT            0.417         1.008       0
    4724 TIP3 1494 TIP3 H2   HT            0.417         1.008       0
    4725 TIP3 1495 TIP3 OH2  OT           -0.834       15.9994       0
    4726 TIP3 1495 TIP3 H1   HT            0.417         1.008       0
    4727 TIP3 1495 TIP3 H2   HT            0.417         1.008       0
    4728 TIP3 1496 TIP3 OH2  OT           -0.834       15.9994       0
    4729 TIP3 1496 TIP3 H1   HT            0.417         1.008       0
    4730 TIP3 1496 TIP3 H2   HT            0.417         1.008       0
    4731 TIP3 1497 TIP3 OH2  OT           -0.834       15.9994       0
    4732 TIP3 1497 TIP3 H1   HT            0.417         1.008       0
    4733 TIP3 1497 TIP3 H2   HT            0.417         1.008       0
    4734 TIP3 1498 TIP3 OH2  OT           -0.834       15.9994       0
    4735 TIP3 1498 TIP3 H1   HT            0.417         1.008       0
    4736 TIP3 1498 TIP3 H2   HT            0.417         1.008       0
    4737 TIP3 1499 TIP3 OH2  OT           -0.834       15.9994       0
    4738 TIP3 1499 TIP3 H1   HT            0.417         1.008       0
    4739 TIP3 1499 TIP3 H2   HT            0.417         1.008       0
    4740 TIP3 1500 TIP3 OH2  OT           -0.834       15.9994       0
    4741 TIP3 1500 TIP3 H1   HT            0.417         1.008       0
    4742 TIP3 1500 TIP3 H2   HT            0.417         1.008       0
    4743 TIP3 1501 TIP3 OH2  OT           -0.834       15.9994       0
    4744 TIP3 1501 TIP3 H1   HT            0.417         1.008       0
    4745 TIP3 1501 TIP3 H2   HT            0.417         1.008       0
    4746 TIP3 1502 TIP3 OH2  OT           -0.834       15.9994       0
    4747 TIP3 1502 TIP3 H1   HT            0.417         1.008       0
    4748 TIP3 1502 TIP3 H2   HT            0.417         1.008       0
    4749 TIP3 1503 TIP3 OH2  OT           -0.834       15.9994       0
    4750 TIP3 1503 TIP3 H1   HT            0.417         1.008       0
    4751 TIP3 1503 TIP3 H2   HT            0.417         1.008       0
    4752 TIP3 1504 TIP3 OH2  OT           -0.834       15.9994       0
    4753 TIP3 1504 TIP3 H1   HT            0.417         1.008       0
    4754 TIP3 1504 TIP3 H2   HT            0.417         1.008       0
    4755 TIP3 1505 TIP3 OH2  OT           -0.834       15.9994       0
    4756 TIP3 1505 TIP3 H1   HT            0.417         1.008       0
    4757 TIP3 1505 TIP3 H2   HT            0.417         1.008       0
    4758 TIP3 1506 TIP3 OH2  OT           -0.834       15.9994       0
    4759 TIP3 1506 TIP3 H1   HT            0.417         1.008       0
    4760 TIP3 1506 TIP3 H2   HT            0.417         1.008       0
    4761 TIP3 1507 TIP3 OH2  OT           -0.834       15.9994       0
    4762 TIP3 1507 TIP3 H1   HT            0.417         1.008       0
    4763 TIP3 1507 TIP3 H2   HT            0.417         1.008       0
    4764 TIP3 1508 TIP3 OH2  OT           -0.834       15.9994       0
    4765 TIP3 1508 TIP3 H1   HT            0.417         1.008       0
    4766 TIP3 1508 TIP3 H2   HT            0.417         1.008       0
    4767 TIP3 1509 TIP3 OH2  OT           -0.834       15.9994       0
    4768 TIP3 1509 TIP3 H1   HT            0.417         1.008       0
    4769 TIP3 1509 TIP3 H2   HT            0.417         1.008       0
    4770 TIP3 1510 TIP3 OH2  OT           -0.834       15.9994       0
    4771 TIP3 1510 TIP3 H1   HT            0.417         1.008       0
    4772 TIP3 1510 TIP3 H2   HT            0.417         1.008       0
    4773 TIP3 1511 TIP3 OH2  OT           -0.834       15.9994       0
    4774 TIP3 1511 TIP3 H1   HT            0.417         1.008       0
    4775 TIP3 1511 TIP3 H2   HT            0.417         1.008       0
    4776 TIP3 1512 TIP3 OH2  OT           -0.834       15.9994       0
    4777 TIP3 1512 TIP3 H1   HT            0.417         1.008       0
    4778 TIP3 1512 TIP3 H2   HT            0.417         1.008       0
    4779 TIP3 1513 TIP3 OH2  OT           -0.834       15.9994       0
    4780 TIP3 1513 TIP3 H1   HT            0.417         1.008       0
    4781 TIP3 1513 TIP3 H2   HT            0.417         1.008       0
    4782 TIP3 1514 TIP3 OH2  OT           -0.834       15.9994       0
    4783 TIP3 1514 TIP3 H1   HT            0.417         1.008       0
    4784 TIP3 1514 TIP3 H2   HT            0.417         1.008       0
    4785 TIP3 1515 TIP3 OH2  OT           -0.834       15.9994       0
    4786 TIP3 1515 TIP3 H1   HT            0.417         1.008       0
    4787 TIP3 1515 TIP3 H2   HT            0.417         1.008       0
    4788 TIP3 1516 TIP3 OH2  OT           -0.834       15.9994       0
    4789 TIP3 1516 TIP3 H1   HT            0.417         1.008       0
    4790 TIP3 1516 TIP3 H2   HT            0.417         1.008       0
    4791 TIP3 1517 TIP3 OH2  OT           -0.834       15.9994       0
    4792 TIP3 1517 TIP3 H1   HT            0.417         1.008       0
    4793 TIP3 1517 TIP3 H2   HT            0.417         1.008       0
    4794 TIP3 1518 TIP3 OH2  OT           -0.834       15.9994       0
    4795 TIP3 1518 TIP3 H1   HT            0.417         1.008       0
    4796 TIP3 1518 TIP3 H2   HT            0.417         1.008       0
    4797 TIP3 1519 TIP3 OH2  OT           -0.834       15.9994       0
    4798 TIP3 1519 TIP3 H1   HT            0.417         1.008       0
    4799 TIP3 1519 TIP3 H2   HT            0.417         1.008       0
    4800 TIP3 1520 TIP3 OH2  OT           -0.834       15.9994       0
    4801 TIP3 1520 TIP3 H1   HT            0.417         1.008       0
    4802 TIP3 1520 TIP3 H2   HT            0.417         1.008       0
    4803 TIP3 1521 TIP3 OH2  OT           -0.834       15.9994       0
    4804 TIP3 1521 TIP3 H1   HT            0.417         1.008       0
    4805 TIP3 1521 TIP3 H2   HT            0.417         1.008       0
    4806 TIP3 1522 TIP3 OH2  OT           -0.834       15.9994       0
    4807 TIP3 1522 TIP3 H1   HT            0.417         1.008       0
    4808 TIP3 1522 TIP3 H2   HT            0.417         1.008       0
    4809 TIP3 1523 TIP3 OH2  OT           -0.834       15.9994       0
    4810 TIP3 1523 TIP3 H1   HT            0.417         1.008       0
    4811 TIP3 1523 TIP3 H2   HT            0.417         1.008       0
    4812 TIP3 1524 TIP3 OH2  OT           -0.834       15.9994       0
    4813 TIP3 1524 TIP3 H1   HT            0.417         1.008       0
    4814 TIP3 1524 TIP3 H2   HT            0.417         1.008       0
    4815 TIP3 1525 TIP3 OH2  OT           -0.834       15.9994       0
    4816 TIP3 1525 TIP3 H1   HT            0.417         1.008       0
    4817 TIP3 1525 TIP3 H2   HT            0.417         1.008       0
    4818 TIP3 1526 TIP3 OH2  OT           -0.834       15.9994       0
    4819 TIP3 1526 TIP3 H1   HT            0.417         1.008       0
    4820 TIP3 1526 TIP3 H2   HT            0.417         1.008       0
    4821 TIP3 1527 TIP3 OH2  OT           -0.834       15.9994       0
    4822 TIP3 1527 TIP3 H1   HT            0.417         1.008       0
    4823 TIP3 1527 TIP3 H2   HT            0.417         1.008       0
    4824 TIP3 1528 TIP3 OH2  OT           -0.834       15.9994       0
    4825 TIP3 1528 TIP3 H1   HT            0.417         1.008       0
    4826 TIP3 1528 TIP3 H2   HT            0.417         1.008       0
    4827 TIP3 1529 TIP3 OH2  OT           -0.834       15.9994       0
    4828 TIP3 1529 TIP3 H1   HT            0.417         1.008       0
    4829 TIP3 1529 TIP3 H2   HT            0.417         1.008       0
    4830 TIP3 1530 TIP3 OH2  OT           -0.834       15.9994       0
    4831 TIP3 1530 TIP3 H1   HT            0.417         1.008       0
    4832 TIP3 1530 TIP3 H2   HT            0.417         1.008       0
    4833 TIP3 1531 TIP3 OH2  OT           -0.834       15.9994       0
    4834 TIP3 1531 TIP3 H1   HT            0.417         1.008       0
    4835 TIP3 1531 TIP3 H2   HT            0.417         1.008       0
    4836 TIP3 1532 TIP3 OH2  OT           -0.834       15.9994       0
    4837 TIP3 1532 TIP3 H1   HT            0.417         1.008       0
    4838 TIP3 1532 TIP3 H2   HT            0.417         1.008       0
    4839 TIP3 1533 TIP3 OH2  OT           -0.834       15.9994       0
    4840 TIP3 1533 TIP3 H1   HT            0.417         1.008       0
    4841 TIP3 1533 TIP3 H2   HT            0.417         1.008       0
    4842 TIP3 1534 TIP3 OH2  OT           -0.834       15.9994       0
    4843 TIP3 1534 TIP3 H1   HT            0.417         1.008       0
    4844 TIP3 1534 TIP3 H2   HT            0.417         1.008       0
    4845 TIP3 1535 TIP3 OH2  OT           -0.834       15.9994       0
    4846 TIP3 1535 TIP3 H1   HT            0.417         1.008       0
    4847 TIP3 1535 TIP3 H2   HT            0.417         1.008       0
    4848 TIP3 1536 TIP3 OH2  OT           -0.834       15.9994       0
    4849 TIP3 1536 TIP3 H1   HT            0.417         1.008       0
    4850 TIP3 1536 TIP3 H2   HT            0.417         1.008       0
    4851 TIP3 1537 TIP3 OH2  OT           -0.834       15.9994       0
    4852 TIP3 1537 TIP3 H1   HT            0.417         1.008       0
    4853 TIP3 1537 TIP3 H2   HT            0.417         1.008       0
    4854 TIP3 1538 TIP3 OH2  OT           -0.834       15.9994       0
    4855 TIP3 1538 TIP3 H1   HT            0.417         1.008       0
    4856 TIP3 1538 TIP3 H2   HT            0.417         1.008       0
    4857 TIP3 1539 TIP3 OH2  OT           -0.834       15.9994       0
    4858 TIP3 1539 TIP3 H1   HT            0.417         1.008       0
    4859 TIP3 1539 TIP3 H2   HT            0.417         1.008       0
    4860 TIP3 1540 TIP3 OH2  OT           -0.834       15.9994       0
    4861 TIP3 1540 TIP3 H1   HT            0.417         1.008       0
    4862 TIP3 1540 TIP3 H2   HT            0.417         1.008       0
    4863 TIP3 1541 TIP3 OH2  OT           -0.834       15.9994       0
    4864 TIP3 1541 TIP3 H1   HT            0.417         1.008       0
    4865 TIP3 1541 TIP3 H2   HT            0.417         1.008       0
    4866 TIP3 1542 TIP3 OH2  OT           -0.834       15.9994       0
    4867 TIP3 1542 TIP3 H1   HT            0.417         1.008       0
    4868 TIP3 1542 TIP3 H2   HT            0.417         1.008       0
    4869 TIP3 1543 TIP3 OH2  OT           -0.834       15.9994       0
    4870 TIP3 1543 TIP3 H1   HT            0.417         1.008       0
    4871 TIP3 1543 TIP3 H2   HT            0.417         1.008       0
    4872 TIP3 1544 TIP3 OH2  OT           -0.834       15.9994       0
    4873 TIP3 1544 TIP3 H1   HT            0.417         1.008       0
    4874 TIP3 1544 TIP3 H2   HT            0.417         1.008       0
    4875 TIP3 1545 TIP3 OH2  OT           -0.834       15.9994       0
    4876 TIP3 1545 TIP3 H1   HT            0.417         1.008       0
    4877 TIP3 1545 TIP3 H2   HT            0.417         1.008       0
    4878 TIP3 1546 TIP3 OH2  OT           -0.834       15.9994       0
    4879 TIP3 1546 TIP3 H1   HT            0.417         1.008       0
    4880 TIP3 1546 TIP3 H2   HT            0.417         1.008       0
    4881 TIP3 1547 TIP3 OH2  OT           -0.834       15.9994       0
    4882 TIP3 1547 TIP3 H1   HT            0.417         1.008       0
    4883 TIP3 1547 TIP3 H2   HT            0.417         1.008       0
    4884 TIP3 1548 TIP3 OH2  OT           -0.834       15.9994       0
    4885 TIP3 1548 TIP3 H1   HT            0.417         1.008       0
    4886 TIP3 1548 TIP3 H2   HT            0.417         1.008       0
    4887 TIP3 1549 TIP3 OH2  OT           -0.834       15.9994       0
    4888 TIP3 1549 TIP3 H1   HT            0.417         1.008       0
    4889 TIP3 1549 TIP3 H2   HT            0.417         1.008       0
    4890 TIP3 1550 TIP3 OH2  OT           -0.834       15.9994       0
    4891 TIP3 1550 TIP3 H1   HT            0.417         1.008       0
    4892 TIP3 1550 TIP3 H2   HT            0.417         1.008       0
    4893 TIP3 1551 TIP3 OH2  OT           -0.834       15.9994       0
    4894 TIP3 1551 TIP3 H1   HT            0.417         1.008       0
    4895 TIP3 1551 TIP3 H2   HT            0.417         1.008       0
    4896 TIP3 1552 TIP3 OH2  OT           -0.834       15.9994       0
    4897 TIP3 1552 TIP3 H1   HT            0.417         1.008       0
    4898 TIP3 1552 TIP3 H2   HT            0.417         1.008       0
    4899 TIP3 1553 TIP3 OH2  OT           -0.834       15.9994       0
    4900 TIP3 1553 TIP3 H1   HT            0.417         1.008       0
    4901 TIP3 1553 TIP3 H2   HT            0.417         1.008       0
    4902 TIP3 1554 TIP3 OH2  OT           -0.834       15.9994       0
    4903 TIP3 1554 TIP3 H1   HT            0.417         1.008       0
    4904 TIP3 1554 TIP3 H2   HT            0.417         1.008       0
    4905 TIP3 1555 TIP3 OH2  OT           -0.834       15.9994       0
    4906 TIP3 1555 TIP3 H1   HT            0.417         1.008       0
    4907 TIP3 1555 TIP3 H2   HT            0.417         1.008       0
    4908 TIP3 1556 TIP3 OH2  OT           -0.834       15.9994       0
    4909 TIP3 1556 TIP3 H1   HT            0.417         1.008       0
    4910 TIP3 1556 TIP3 H2   HT            0.417         1.008       0
    4911 TIP3 1557 TIP3 OH2  OT           -0.834       15.9994       0
    4912 TIP3 1557 TIP3 H1   HT            0.417         1.008       0
    4913 TIP3 1557 TIP3 H2   HT            0.417         1.008       0
    4914 TIP3 1558 TIP3 OH2  OT           -0.834       15.9994       0
    4915 TIP3 1558 TIP3 H1   HT            0.417         1.008       0
    4916 TIP3 1558 TIP3 H2   HT            0.417         1.008       0
    4917 TIP3 1559 TIP3 OH2  OT           -0.834       15.9994       0
    4918 TIP3 1559 TIP3 H1   HT            0.417         1.008       0
    4919 TIP3 1559 TIP3 H2   HT            0.417         1.008       0
    4920 TIP3 1560 TIP3 OH2  OT           -0.834       15.9994       0
    4921 TIP3 1560 TIP3 H1   HT            0.417         1.008       0
    4922 TIP3 1560 TIP3 H2   HT            0.417         1.008       0
    4923 TIP3 1561 TIP3 OH2  OT           -0.834       15.9994       0
    4924 TIP3 1561 TIP3 H1   HT            0.417         1.008       0
    4925 TIP3 1561 TIP3 H2   HT            0.417         1.008       0
    4926 TIP3 1562 TIP3 OH2  OT           -0.834       15.9994       0
    4927 TIP3 1562 TIP3 H1   HT            0.417         1.008       0
    4928 TIP3 1562 TIP3 H2   HT            0.417         1.008       0
    4929 TIP3 1563 TIP3 OH2  OT           -0.834       15.9994       0
    4930 TIP3 1563 TIP3 H1   HT            0.417         1.008       0
    4931 TIP3 1563 TIP3 H2   HT            0.417         1.008       0
    4932 TIP3 1564 TIP3 OH2  OT           -0.834       15.9994       0
    4933 TIP3 1564 TIP3 H1   HT            0.417         1.008       0
    4934 TIP3 1564 TIP3 H2   HT            0.417         1.008       0
    4935 TIP3 1565 TIP3 OH2  OT           -0.834       15.9994       0
    4936 TIP3 1565 TIP3 H1   HT            0.417         1.008       0
    4937 TIP3 1565 TIP3 H2   HT            0.417         1.008       0
    4938 TIP3 1566 TIP3 OH2  OT           -0.834       15.9994       0
    4939 TIP3 1566 TIP3 H1   HT            0.417         1.008       0
    4940 TIP3 1566 TIP3 H2   HT            0.417         1.008       0
    4941 TIP3 1567 TIP3 OH2  OT           -0.834       15.9994       0
    4942 TIP3 1567 TIP3 H1   HT            0.417         1.008       0
    4943 TIP3 1567 TIP3 H2   HT            0.417         1.008       0
    4944 TIP3 1568 TIP3 OH2  OT           -0.834       15.9994       0
    4945 TIP3 1568 TIP3 H1   HT            0.417         1.008       0
    4946 TIP3 1568 TIP3 H2   HT            0.417         1.008       0
    4947 TIP3 1569 TIP3 OH2  OT           -0.834       15.9994       0
    4948 TIP3 1569 TIP3 H1   HT            0.417         1.008       0
    4949 TIP3 1569 TIP3 H2   HT            0.417         1.008       0
    4950 TIP3 1570 TIP3 OH2  OT           -0.834       15.9994       0
    4951 TIP3 1570 TIP3 H1   HT            0.417         1.008       0
    4952 TIP3 1570 TIP3 H2   HT            0.417         1.008       0
    4953 TIP3 1571 TIP3 OH2  OT           -0.834       15.9994       0
    4954 TIP3 1571 TIP3 H1   HT            0.417         1.008       0
    4955 TIP3 1571 TIP3 H2   HT            0.417         1.008       0
    4956 TIP3 1572 TIP3 OH2  OT           -0.834       15.9994       0
    4957 TIP3 1572 TIP3 H1   HT            0.417         1.008       0
    4958 TIP3 1572 TIP3 H2   HT            0.417         1.008       0
    4959 TIP3 1573 TIP3 OH2  OT           -0.834       15.9994       0
    4960 TIP3 1573 TIP3 H1   HT            0.417         1.008       0
    4961 TIP3 1573 TIP3 H2   HT            0.417         1.008       0
    4962 TIP3 1574 TIP3 OH2  OT           -0.834       15.9994       0
    4963 TIP3 1574 TIP3 H1   HT            0.417         1.008       0
    4964 TIP3 1574 TIP3 H2   HT            0.417         1.008       0
    4965 TIP3 1575 TIP3 OH2  OT           -0.834       15.9994       0
    4966 TIP3 1575 TIP3 H1   HT            0.417         1.008       0
    4967 TIP3 1575 TIP3 H2   HT            0.417         1.008       0
    4968 TIP3 1576 TIP3 OH2  OT           -0.834       15.9994       0
    4969 TIP3 1576 TIP3 H1   HT            0.417         1.008       0
    4970 TIP3 1576 TIP3 H2   HT            0.417         1.008       0
    4971 TIP3 1577 TIP3 OH2  OT           -0.834       15.9994       0
    4972 TIP3 1577 TIP3 H1   HT            0.417         1.008       0
    4973 TIP3 1577 TIP3 H2   HT            0.417         1.008       0
    4974 TIP3 1578 TIP3 OH2  OT           -0.834       15.9994       0
    4975 TIP3 1578 TIP3 H1   HT            0.417         1.008       0
    4976 TIP3 1578 TIP3 H2   HT            0.417         1.008       0
    4977 TIP3 1579 TIP3 OH2  OT           -0.834       15.9994       0
    4978 TIP3 1579 TIP3 H1   HT            0.417         1.008       0
    4979 TIP3 1579 TIP3 H2   HT            0.417         1.008       0
    4980 TIP3 1580 TIP3 OH2  OT           -0.834       15.9994       0
    4981 TIP3 1580 TIP3 H1   HT            0.417         1.008       0
    4982 TIP3 1580 TIP3 H2   HT            0.417         1.008       0
    4983 TIP3 1581 TIP3 OH2  OT           -0.834       15.9994       0
    4984 TIP3 1581 TIP3 H1   HT            0.417         1.008       0
    4985 TIP3 1581 TIP3 H2   HT            0.417         1.008       0
    4986 TIP3 1582 TIP3 OH2  OT           -0.834       15.9994       0
    4987 TIP3 1582 TIP3 H1   HT            0.417         1.008       0
    4988 TIP3 1582 TIP3 H2   HT            0.417         1.008       0
    4989 TIP3 1583 TIP3 OH2  OT           -0.834       15.9994       0
    4990 TIP3 1583 TIP3 H1   HT            0.417         1.008       0
    4991 TIP3 1583 TIP3 H2   HT            0.417         1.008       0
    4992 TIP3 1584 TIP3 OH2  OT           -0.834       15.9994       0
    4993 TIP3 1584 TIP3 H1   HT            0.417         1.008       0
    4994 TIP3 1584 TIP3 H2   HT            0.417         1.008       0
    4995 TIP3 1585 TIP3 OH2  OT           -0.834       15.9994       0
    4996 TIP3 1585 TIP3 H1   HT            0.417         1.008       0
    4997 TIP3 1585 TIP3 H2   HT            0.417         1.008       0
    4998 TIP3 1586 TIP3 OH2  OT           -0.834       15.9994       0
    4999 TIP3 1586 TIP3 H1   HT            0.417         1.008       0
    5000 TIP3 1586 TIP3 H2   HT            0.417         1.008       0
    5001 TIP3 1587 TIP3 OH2  OT           -0.834       15.9994       0
    5002 TIP3 1587 TIP3 H1   HT            0.417         1.008       0
    5003 TIP3 1587 TIP3 H2   HT            0.417         1.008       0
    5004 TIP3 1588 TIP3 OH2  OT           -0.834       15.9994       0
    5005 TIP3 1588 TIP3 H1   HT            0.417         1.008       0
    5006 TIP3 1588 TIP3 H2   HT            0.417         1.008       0
    5007 TIP3 1589 TIP3 OH2  OT           -0.834       15.9994       0
    5008 TIP3 1589 TIP3 H1   HT            0.417         1.008       0
    5009 TIP3 1589 TIP3 H2   HT            0.417         1.008       0
    5010 TIP3 1590 TIP3 OH2  OT           -0.834       15.9994       0
    5011 TIP3 1590 TIP3 H1   HT            0.417         1.008       0
    5012 TIP3 1590 TIP3 H2   HT            0.417         1.008       0
    5013 TIP3 1591 TIP3 OH2  OT           -0.834       15.9994       0
    5014 TIP3 1591 TIP3 H1   HT            0.417         1.008       0
    5015 TIP3 1591 TIP3 H2   HT            0.417         1.008       0
    5016 TIP3 1592 TIP3 OH2  OT           -0.834       15.9994       0
    5017 TIP3 1592 TIP3 H1   HT            0.417         1.008       0
    5018 TIP3 1592 TIP3 H2   HT            0.417         1.008       0
    5019 TIP3 1593 TIP3 OH2  OT           -0.834       15.9994       0
    5020 TIP3 1593 TIP3 H1   HT            0.417         1.008       0
    5021 TIP3 1593 TIP3 H2   HT            0.417         1.008       0
    5022 TIP3 1594 TIP3 OH2  OT           -0.834       15.9994       0
    5023 TIP3 1594 TIP3 H1   HT            0.417         1.008       0
    5024 TIP3 1594 TIP3 H2   HT            0.417         1.008       0
    5025 TIP3 1595 TIP3 OH2  OT           -0.834       15.9994       0
    5026 TIP3 1595 TIP3 H1   HT            0.417         1.008       0
    5027 TIP3 1595 TIP3 H2   HT            0.417         1.008       0
    5028 TIP3 1596 TIP3 OH2  OT           -0.834       15.9994       0
    5029 TIP3 1596 TIP3 H1   HT            0.417         1.008       0
    5030 TIP3 1596 TIP3 H2   HT            0.417         1.008       0
    5031 TIP3 1597 TIP3 OH2  OT           -0.834       15.9994       0
    5032 TIP3 1597 TIP3 H1   HT            0.417         1.008       0
    5033 TIP3 1597 TIP3 H2   HT            0.417         1.008       0
    5034 TIP3 1598 TIP3 OH2  OT           -0.834       15.9994       0
    5035 TIP3 1598 TIP3 H1   HT            0.417         1.008       0
    5036 TIP3 1598 TIP3 H2   HT            0.417         1.008       0
    5037 TIP3 1599 TIP3 OH2  OT           -0.834       15.9994       0
    5038 TIP3 1599 TIP3 H1   HT            0.417         1.008       0
    5039 TIP3 1599 TIP3 H2   HT            0.417         1.008       0
    5040 TIP3 1600 TIP3 OH2  OT           -0.834       15.9994       0
    5041 TIP3 1600 TIP3 H1   HT            0.417         1.008       0
    5042 TIP3 1600 TIP3 H2   HT            0.417         1.008       0
    5043 TIP3 1601 TIP3 OH2  OT           -0.834       15.9994       0
    5044 TIP3 1601 TIP3 H1   HT            0.417         1.008       0
    5045 TIP3 1601 TIP3 H2   HT            0.417         1.008       0
    5046 TIP3 1602 TIP3 OH2  OT           -0.834       15.9994       0
    5047 TIP3 1602 TIP3 H1   HT            0.417         1.008       0
    5048 TIP3 1602 TIP3 H2   HT            0.417         1.008       0
    5049 TIP3 1603 TIP3 OH2  OT           -0.834       15.9994       0
    5050 TIP3 1603 TIP3 H1   HT            0.417         1.008       0
    5051 TIP3 1603 TIP3 H2   HT            0.417         1.008       0
    5052 TIP3 1604 TIP3 OH2  OT           -0.834       15.9994       0
    5053 TIP3 1604 TIP3 H1   HT            0.417         1.008       0
    5054 TIP3 1604 TIP3 H2   HT            0.417         1.008       0
    5055 TIP3 1605 TIP3 OH2  OT           -0.834       15.9994       0
    5056 TIP3 1605 TIP3 H1   HT            0.417         1.008       0
    5057 TIP3 1605 TIP3 H2   HT            0.417         1.008       0
    5058 TIP3 1606 TIP3 OH2  OT           -0.834       15.9994       0
    5059 TIP3 1606 TIP3 H1   HT            0.417         1.008       0
    5060 TIP3 1606 TIP3 H2   HT            0.417         1.008       0
    5061 TIP3 1607 TIP3 OH2  OT           -0.834       15.9994       0
    5062 TIP3 1607 TIP3 H1   HT            0.417         1.008       0
    5063 TIP3 1607 TIP3 H2   HT            0.417         1.008       0
    5064 TIP3 1608 TIP3 OH2  OT           -0.834       15.9994       0
    5065 TIP3 1608 TIP3 H1   HT            0.417         1.008       0
    5066 TIP3 1608 TIP3 H2   HT            0.417         1.008       0
    5067 TIP3 1609 TIP3 OH2  OT           -0.834       15.9994       0
    5068 TIP3 1609 TIP3 H1   HT            0.417         1.008       0
    5069 TIP3 1609 TIP3 H2   HT            0.417         1.008       0
    5070 TIP3 1610 TIP3 OH2  OT           -0.834       15.9994       0
    5071 TIP3 1610 TIP3 H1   HT            0.417         1.008       0
    5072 TIP3 1610 TIP3 H2   HT            0.417         1.008       0
    5073 TIP3 1611 TIP3 OH2  OT           -0.834       15.9994       0
    5074 TIP3 1611 TIP3 H1   HT            0.417         1.008       0
    5075 TIP3 1611 TIP3 H2   HT            0.417         1.008       0
    5076 TIP3 1612 TIP3 OH2  OT           -0.834       15.9994       0
    5077 TIP3 1612 TIP3 H1   HT            0.417         1.008       0
    5078 TIP3 1612 TIP3 H2   HT            0.417         1.008       0
    5079 TIP3 1613 TIP3 OH2  OT           -0.834       15.9994       0
    5080 TIP3 1613 TIP3 H1   HT            0.417         1.008       0
    5081 TIP3 1613 TIP3 H2   HT            0.417         1.008       0
    5082 TIP3 1614 TIP3 OH2  OT           -0.834       15.9994       0
    5083 TIP3 1614 TIP3 H1   HT            0.417         1.008       0
    5084 TIP3 1614 TIP3 H2   HT            0.417         1.008       0
    5085 TIP3 1615 TIP3 OH2  OT           -0.834       15.9994       0
    5086 TIP3 1615 TIP3 H1   HT            0.417         1.008       0
    5087 TIP3 1615 TIP3 H2   HT            0.417         1.008       0
    5088 TIP3 1616 TIP3 OH2  OT           -0.834       15.9994       0
    5089 TIP3 1616 TIP3 H1   HT            0.417         1.008       0
    5090 TIP3 1616 TIP3 H2   HT            0.417         1.008       0
    5091 TIP3 1617 TIP3 OH2  OT           -0.834       15.9994       0
    5092 TIP3 1617 TIP3 H1   HT            0.417         1.008       0
    5093 TIP3 1617 TIP3 H2   HT            0.417         1.008       0
    5094 TIP3 1618 TIP3 OH2  OT           -0.834       15.9994       0
    5095 TIP3 1618 TIP3 H1   HT            0.417         1.008       0
    5096 TIP3 1618 TIP3 H2   HT            0.417         1.008       0
    5097 TIP3 1619 TIP3 OH2  OT           -0.834       15.9994       0
    5098 TIP3 1619 TIP3 H1   HT            0.417         1.008       0
    5099 TIP3 1619 TIP3 H2   HT            0.417         1.008       0
    5100 TIP3 1620 TIP3 OH2  OT           -0.834       15.9994       0
    5101 TIP3 1620 TIP3 H1   HT            0.417         1.008       0
    5102 TIP3 1620 TIP3 H2   HT            0.417         1.008       0
    5103 TIP3 1621 TIP3 OH2  OT           -0.834       15.9994       0
    5104 TIP3 1621 TIP3 H1   HT            0.417         1.008       0
    5105 TIP3 1621 TIP3 H2   HT            0.417         1.008       0
    5106 TIP3 1622 TIP3 OH2  OT           -0.834       15.9994       0
    5107 TIP3 1622 TIP3 H1   HT            0.417         1.008       0
    5108 TIP3 1622 TIP3 H2   HT            0.417         1.008       0
    5109 TIP3 1623 TIP3 OH2  OT           -0.834       15.9994       0
    5110 TIP3 1623 TIP3 H1   HT            0.417         1.008       0
    5111 TIP3 1623 TIP3 H2   HT            0.417         1.008       0
    5112 TIP3 1624 TIP3 OH2  OT           -0.834       15.9994       0
    5113 TIP3 1624 TIP3 H1   HT            0.417         1.008       0
    5114 TIP3 1624 TIP3 H2   HT            0.417         1.008       0
    5115 TIP3 1625 TIP3 OH2  OT           -0.834       15.9994       0
    5116 TIP3 1625 TIP3 H1   HT            0.417         1.008       0
    5117 TIP3 1625 TIP3 H2   HT            0.417         1.008       0
    5118 TIP3 1626 TIP3 OH2  OT           -0.834       15.9994       0
    5119 TIP3 1626 TIP3 H1   HT            0.417         1.008       0
    5120 TIP3 1626 TIP3 H2   HT            0.417         1.008       0
    5121 TIP3 1627 TIP3 OH2  OT           -0.834       15.9994       0
    5122 TIP3 1627 TIP3 H1   HT            0.417         1.008       0
    5123 TIP3 1627 TIP3 H2   HT            0.417         1.008       0
    5124 TIP3 1628 TIP3 OH2  OT           -0.834       15.9994       0
    5125 TIP3 1628 TIP3 H1   HT            0.417         1.008       0
    5126 TIP3 1628 TIP3 H2   HT            0.417         1.008       0
    5127 TIP3 1629 TIP3 OH2  OT           -0.834       15.9994       0
    5128 TIP3 1629 TIP3 H1   HT            0.417         1.008       0
    5129 TIP3 1629 TIP3 H2   HT            0.417         1.008       0
    5130 TIP3 1630 TIP3 OH2  OT           -0.834       15.9994       0
    5131 TIP3 1630 TIP3 H1   HT            0.417         1.008       0
    5132 TIP3 1630 TIP3 H2   HT            0.417         1.008       0
    5133 TIP3 1631 TIP3 OH2  OT           -0.834       15.9994       0
    5134 TIP3 1631 TIP3 H1   HT            0.417         1.008       0
    5135 TIP3 1631 TIP3 H2   HT            0.417         1.008       0
    5136 TIP3 1632 TIP3 OH2  OT           -0.834       15.9994       0
    5137 TIP3 1632 TIP3 H1   HT            0.417         1.008       0
    5138 TIP3 1632 TIP3 H2   HT            0.417         1.008       0
    5139 TIP3 1633 TIP3 OH2  OT           -0.834       15.9994       0
    5140 TIP3 1633 TIP3 H1   HT            0.417         1.008       0
    5141 TIP3 1633 TIP3 H2   HT            0.417         1.008       0
    5142 TIP3 1634 TIP3 OH2  OT           -0.834       15.9994       0
    5143 TIP3 1634 TIP3 H1   HT            0.417         1.008       0
    5144 TIP3 1634 TIP3 H2   HT            0.417         1.008       0
    5145 TIP3 1635 TIP3 OH2  OT           -0.834       15.9994       0
    5146 TIP3 1635 TIP3 H1   HT            0.417         1.008       0
    5147 TIP3 1635 TIP3 H2   HT            0.417         1.008       0
    5148 TIP3 1636 TIP3 OH2  OT           -0.834       15.9994       0
    5149 TIP3 1636 TIP3 H1   HT            0.417         1.008       0
    5150 TIP3 1636 TIP3 H2   HT            0.417         1.008       0
    5151 TIP3 1637 TIP3 OH2  OT           -0.834       15.9994       0
    5152 TIP3 1637 TIP3 H1   HT            0.417         1.008       0
    5153 TIP3 1637 TIP3 H2   HT            0.417         1.008       0
    5154 TIP3 1638 TIP3 OH2  OT           -0.834       15.9994       0
    5155 TIP3 1638 TIP3 H1   HT            0.417         1.008       0
    5156 TIP3 1638 TIP3 H2   HT            0.417         1.008       0
    5157 TIP3 1639 TIP3 OH2  OT           -0.834       15.9994       0
    5158 TIP3 1639 TIP3 H1   HT            0.417         1.008       0
    5159 TIP3 1639 TIP3 H2   HT            0.417         1.008       0
    5160 TIP3 1640 TIP3 OH2  OT           -0.834       15.9994       0
    5161 TIP3 1640 TIP3 H1   HT            0.417         1.008       0
    5162 TIP3 1640 TIP3 H2   HT            0.417         1.008       0
    5163 TIP3 1641 TIP3 OH2  OT           -0.834       15.9994       0
    5164 TIP3 1641 TIP3 H1   HT            0.417         1.008       0
    5165 TIP3 1641 TIP3 H2   HT            0.417         1.008       0
    5166 TIP3 1642 TIP3 OH2  OT           -0.834       15.9994       0
    5167 TIP3 1642 TIP3 H1   HT            0.417         1.008       0
    5168 TIP3 1642 TIP3 H2   HT            0.417         1.008       0
    5169 TIP3 1643 TIP3 OH2  OT           -0.834       15.9994       0
    5170 TIP3 1643 TIP3 H1   HT            0.417         1.008       0
    5171 TIP3 1643 TIP3 H2   HT            0.417         1.008       0
    5172 TIP3 1644 TIP3 OH2  OT           -0.834       15.9994       0
    5173 TIP3 1644 TIP3 H1   HT            0.417         1.008       0
    5174 TIP3 1644 TIP3 H2   HT            0.417         1.008       0
    5175 TIP3 1645 TIP3 OH2  OT           -0.834       15.9994       0
    5176 TIP3 1645 TIP3 H1   HT            0.417         1.008       0
    5177 TIP3 1645 TIP3 H2   HT            0.417         1.008       0
    5178 TIP3 1646 TIP3 OH2  OT           -0.834       15.9994       0
    5179 TIP3 1646 TIP3 H1   HT            0.417         1.008       0
    5180 TIP3 1646 TIP3 H2   HT            0.417         1.008       0
    5181 TIP3 1647 TIP3 OH2  OT           -0.834       15.9994       0
    5182 TIP3 1647 TIP3 H1   HT            0.417         1.008       0
    5183 TIP3 1647 TIP3 H2   HT            0.417         1.008       0
    5184 TIP3 1648 TIP3 OH2  OT           -0.834       15.9994       0
    5185 TIP3 1648 TIP3 H1   HT            0.417         1.008       0
    5186 TIP3 1648 TIP3 H2   HT            0.417         1.008       0
    5187 TIP3 1649 TIP3 OH2  OT           -0.834       15.9994       0
    5188 TIP3 1649 TIP3 H1   HT            0.417         1.008       0
    5189 TIP3 1649 TIP3 H2   HT            0.417         1.008       0
    5190 TIP3 1650 TIP3 OH2  OT           -0.834       15.9994       0
    5191 TIP3 1650 TIP3 H1   HT            0.417         1.008       0
    5192 TIP3 1650 TIP3 H2   HT            0.417         1.008       0
    5193 TIP3 1651 TIP3 OH2  OT           -0.834       15.9994       0
    5194 TIP3 1651 TIP3 H1   HT            0.417         1.008       0
    5195 TIP3 1651 TIP3 H2   HT            0.417         1.008       0
    5196 TIP3 1652 TIP3 OH2  OT           -0.834       15.9994       0
    5197 TIP3 1652 TIP3 H1   HT            0.417         1.008       0
    5198 TIP3 1652 TIP3 H2   HT            0.417         1.008       0
    5199 TIP3 1653 TIP3 OH2  OT           -0.834       15.9994       0
    5200 TIP3 1653 TIP3 H1   HT            0.417         1.008       0
    5201 TIP3 1653 TIP3 H2   HT            0.417         1.008       0
    5202 TIP3 1654 TIP3 OH2  OT           -0.834       15.9994       0
    5203 TIP3 1654 TIP3 H1   HT            0.417         1.008       0
    5204 TIP3 1654 TIP3 H2   HT            0.417         1.008       0
    5205 TIP3 1655 TIP3 OH2  OT           -0.834       15.9994       0
    5206 TIP3 1655 TIP3 H1   HT            0.417         1.008       0
    5207 TIP3 1655 TIP3 H2   HT            0.417         1.008       0
    5208 TIP3 1656 TIP3 OH2  OT           -0.834       15.9994       0
    5209 TIP3 1656 TIP3 H1   HT            0.417         1.008       0
    5210 TIP3 1656 TIP3 H2   HT            0.417         1.008       0
    5211 TIP3 1657 TIP3 OH2  OT           -0.834       15.9994       0
    5212 TIP3 1657 TIP3 H1   HT            0.417         1.008       0
    5213 TIP3 1657 TIP3 H2   HT            0.417         1.008       0
    5214 TIP3 1658 TIP3 OH2  OT           -0.834       15.9994       0
    5215 TIP3 1658 TIP3 H1   HT            0.417         1.008       0
    5216 TIP3 1658 TIP3 H2   HT            0.417         1.008       0
    5217 TIP3 1659 TIP3 OH2  OT           -0.834       15.9994       0
    5218 TIP3 1659 TIP3 H1   HT            0.417         1.008       0
    5219 TIP3 1659 TIP3 H2   HT            0.417         1.008       0
    5220 TIP3 1660 TIP3 OH2  OT           -0.834       15.9994       0
    5221 TIP3 1660 TIP3 H1   HT            0.417         1.008       0
    5222 TIP3 1660 TIP3 H2   HT            0.417         1.008       0
    5223 TIP3 1661 TIP3 OH2  OT           -0.834       15.9994       0
    5224 TIP3 1661 TIP3 H1   HT            0.417         1.008       0
    5225 TIP3 1661 TIP3 H2   HT            0.417         1.008       0
    5226 TIP3 1662 TIP3 OH2  OT           -0.834       15.9994       0
    5227 TIP3 1662 TIP3 H1   HT            0.417         1.008       0
    5228 TIP3 1662 TIP3 H2   HT            0.417         1.008       0
    5229 TIP3 1663 TIP3 OH2  OT           -0.834       15.9994       0
    5230 TIP3 1663 TIP3 H1   HT            0.417         1.008       0
    5231 TIP3 1663 TIP3 H2   HT            0.417         1.008       0
    5232 TIP3 1664 TIP3 OH2  OT           -0.834       15.9994       0
    5233 TIP3 1664 TIP3 H1   HT            0.417         1.008       0
    5234 TIP3 1664 TIP3 H2   HT            0.417         1.008       0
    5235 TIP3 1665 TIP3 OH2  OT           -0.834       15.9994       0
    5236 TIP3 1665 TIP3 H1   HT            0.417         1.008       0
    5237 TIP3 1665 TIP3 H2   HT            0.417         1.008       0
    5238 TIP3 1666 TIP3 OH2  OT           -0.834       15.9994       0
    5239 TIP3 1666 TIP3 H1   HT            0.417         1.008       0
    5240 TIP3 1666 TIP3 H2   HT            0.417         1.008       0
    5241 TIP3 1667 TIP3 OH2  OT           -0.834       15.9994       0
    5242 TIP3 1667 TIP3 H1   HT            0.417         1.008       0
    5243 TIP3 1667 TIP3 H2   HT            0.417         1.008       0
    5244 TIP3 1668 TIP3 OH2  OT           -0.834       15.9994       0
    5245 TIP3 1668 TIP3 H1   HT            0.417         1.008       0
    5246 TIP3 1668 TIP3 H2   HT            0.417         1.008       0
    5247 TIP3 1669 TIP3 OH2  OT           -0.834       15.9994       0
    5248 TIP3 1669 TIP3 H1   HT            0.417         1.008       0
    5249 TIP3 1669 TIP3 H2   HT            0.417         1.008       0
    5250 TIP3 1670 TIP3 OH2  OT           -0.834       15.9994       0
    5251 TIP3 1670 TIP3 H1   HT            0.417         1.008       0
    5252 TIP3 1670 TIP3 H2   HT            0.417         1.008       0
    5253 TIP3 1671 TIP3 OH2  OT           -0.834       15.9994       0
    5254 TIP3 1671 TIP3 H1   HT            0.417         1.008       0
    5255 TIP3 1671 TIP3 H2   HT            0.417         1.008       0
    5256 TIP3 1672 TIP3 OH2  OT           -0.834       15.9994       0
    5257 TIP3 1672 TIP3 H1   HT            0.417         1.008       0
    5258 TIP3 1672 TIP3 H2   HT            0.417         1.008       0
    5259 TIP3 1673 TIP3 OH2  OT           -0.834       15.9994       0
    5260 TIP3 1673 TIP3 H1   HT            0.417         1.008       0
    5261 TIP3 1673 TIP3 H2   HT            0.417         1.008       0
    5262 TIP3 1674 TIP3 OH2  OT           -0.834       15.9994       0
    5263 TIP3 1674 TIP3 H1   HT            0.417         1.008       0
    5264 TIP3 1674 TIP3 H2   HT            0.417         1.008       0
    5265 TIP3 1675 TIP3 OH2  OT           -0.834       15.9994       0
    5266 TIP3 1675 TIP3 H1   HT            0.417         1.008       0
    5267 TIP3 1675 TIP3 H2   HT            0.417         1.008       0
    5268 TIP3 1676 TIP3 OH2  OT           -0.834       15.9994       0
    5269 TIP3 1676 TIP3 H1   HT            0.417         1.008       0
    5270 TIP3 1676 TIP3 H2   HT            0.417         1.008       0
    5271 TIP3 1677 TIP3 OH2  OT           -0.834       15.9994       0
    5272 TIP3 1677 TIP3 H1   HT            0.417         1.008       0
    5273 TIP3 1677 TIP3 H2   HT            0.417         1.008       0
    5274 TIP3 1678 TIP3 OH2  OT           -0.834       15.9994       0
    5275 TIP3 1678 TIP3 H1   HT            0.417         1.008       0
    5276 TIP3 1678 TIP3 H2   HT            0.417         1.008       0
    5277 TIP3 1679 TIP3 OH2  OT           -0.834       15.9994       0
    5278 TIP3 1679 TIP3 H1   HT            0.417         1.008       0
    5279 TIP3 1679 TIP3 H2   HT            0.417         1.008       0
    5280 TIP3 1680 TIP3 OH2  OT           -0.834       15.9994       0
    5281 TIP3 1680 TIP3 H1   HT            0.417         1.008       0
    5282 TIP3 1680 TIP3 H2   HT            0.417         1.008       0
    5283 TIP3 1681 TIP3 OH2  OT           -0.834       15.9994       0
    5284 TIP3 1681 TIP3 H1   HT            0.417         1.008       0
    5285 TIP3 1681 TIP3 H2   HT            0.417         1.008       0
    5286 TIP3 1682 TIP3 OH2  OT           -0.834       15.9994       0
    5287 TIP3 1682 TIP3 H1   HT            0.417         1.008       0
    5288 TIP3 1682 TIP3 H2   HT            0.417         1.008       0
    5289 TIP3 1683 TIP3 OH2  OT           -0.834       15.9994       0
    5290 TIP3 1683 TIP3 H1   HT            0.417         1.008       0
    5291 TIP3 1683 TIP3 H2   HT            0.417         1.008       0
    5292 TIP3 1684 TIP3 OH2  OT           -0.834       15.9994       0
    5293 TIP3 1684 TIP3 H1   HT            0.417         1.008       0
    5294 TIP3 1684 TIP3 H2   HT            0.417         1.008       0
    5295 TIP3 1685 TIP3 OH2  OT           -0.834       15.9994       0
    5296 TIP3 1685 TIP3 H1   HT            0.417         1.008       0
    5297 TIP3 1685 TIP3 H2   HT            0.417         1.008       0
    5298 TIP3 1686 TIP3 OH2  OT           -0.834       15.9994       0
    5299 TIP3 1686 TIP3 H1   HT            0.417         1.008       0
    5300 TIP3 1686 TIP3 H2   HT            0.417         1.008       0
    5301 TIP3 1687 TIP3 OH2  OT           -0.834       15.9994       0
    5302 TIP3 1687 TIP3 H1   HT            0.417         1.008       0
    5303 TIP3 1687 TIP3 H2   HT            0.417         1.008       0
    5304 TIP3 1688 TIP3 OH2  OT           -0.834       15.9994       0
    5305 TIP3 1688 TIP3 H1   HT            0.417         1.008       0
    5306 TIP3 1688 TIP3 H2   HT            0.417         1.008       0
    5307 TIP3 1689 TIP3 OH2  OT           -0.834       15.9994       0
    5308 TIP3 1689 TIP3 H1   HT            0.417         1.008       0
    5309 TIP3 1689 TIP3 H2   HT            0.417         1.008       0
    5310 TIP3 1690 TIP3 OH2  OT           -0.834       15.9994       0
    5311 TIP3 1690 TIP3 H1   HT            0.417         1.008       0
    5312 TIP3 1690 TIP3 H2   HT            0.417         1.008       0
    5313 TIP3 1691 TIP3 OH2  OT           -0.834       15.9994       0
    5314 TIP3 1691 TIP3 H1   HT            0.417         1.008       0
    5315 TIP3 1691 TIP3 H2   HT            0.417         1.008       0
    5316 TIP3 1692 TIP3 OH2  OT           -0.834       15.9994       0
    5317 TIP3 1692 TIP3 H1   HT            0.417         1.008       0
    5318 TIP3 1692 TIP3 H2   HT            0.417         1.008       0
    5319 TIP3 1693 TIP3 OH2  OT           -0.834       15.9994       0
    5320 TIP3 1693 TIP3 H1   HT            0.417         1.008       0
    5321 TIP3 1693 TIP3 H2   HT            0.417         1.008       0
    5322 TIP3 1694 TIP3 OH2  OT           -0.834       15.9994       0
    5323 TIP3 1694 TIP3 H1   HT            0.417         1.008       0
    5324 TIP3 1694 TIP3 H2   HT            0.417         1.008       0
    5325 TIP3 1695 TIP3 OH2  OT           -0.834       15.9994       0
    5326 TIP3 1695 TIP3 H1   HT            0.417         1.008       0
    5327 TIP3 1695 TIP3 H2   HT            0.417         1.008       0
    5328 TIP3 1696 TIP3 OH2  OT           -0.834       15.9994       0
    5329 TIP3 1696 TIP3 H1   HT            0.417         1.008       0
    5330 TIP3 1696 TIP3 H2   HT            0.417         1.008       0
    5331 TIP3 1697 TIP3 OH2  OT           -0.834       15.9994       0
    5332 TIP3 1697 TIP3 H1   HT            0.417         1.008       0
    5333 TIP3 1697 TIP3 H2   HT            0.417         1.008       0
    5334 TIP3 1698 TIP3 OH2  OT           -0.834       15.9994       0
    5335 TIP3 1698 TIP3 H1   HT            0.417         1.008       0
    5336 TIP3 1698 TIP3 H2   HT            0.417         1.008       0
    5337 TIP3 1699 TIP3 OH2  OT           -0.834       15.9994       0
    5338 TIP3 1699 TIP3 H1   HT            0.417         1.008       0
    5339 TIP3 1699 TIP3 H2   HT            0.417         1.008       0
    5340 TIP3 1700 TIP3 OH2  OT           -0.834       15.9994       0
    5341 TIP3 1700 TIP3 H1   HT            0.417         1.008       0
    5342 TIP3 1700 TIP3 H2   HT            0.417         1.008       0
    5343 TIP3 1701 TIP3 OH2  OT           -0.834       15.9994       0
    5344 TIP3 1701 TIP3 H1   HT            0.417         1.008       0
    5345 TIP3 1701 TIP3 H2   HT            0.417         1.008       0
    5346 TIP3 1702 TIP3 OH2  OT           -0.834       15.9994       0
    5347 TIP3 1702 TIP3 H1   HT            0.417         1.008       0
    5348 TIP3 1702 TIP3 H2   HT            0.417         1.008       0
    5349 TIP3 1703 TIP3 OH2  OT           -0.834       15.9994       0
    5350 TIP3 1703 TIP3 H1   HT            0.417         1.008       0
    5351 TIP3 1703 TIP3 H2   HT            0.417         1.008       0
    5352 TIP3 1704 TIP3 OH2  OT           -0.834       15.9994       0
    5353 TIP3 1704 TIP3 H1   HT            0.417         1.008       0
    5354 TIP3 1704 TIP3 H2   HT            0.417         1.008       0
    5355 TIP3 1705 TIP3 OH2  OT           -0.834       15.9994       0
    5356 TIP3 1705 TIP3 H1   HT            0.417         1.008       0
    5357 TIP3 1705 TIP3 H2   HT            0.417         1.008       0
    5358 TIP3 1706 TIP3 OH2  OT           -0.834       15.9994       0
    5359 TIP3 1706 TIP3 H1   HT            0.417         1.008       0
    5360 TIP3 1706 TIP3 H2   HT            0.417         1.008       0
    5361 TIP3 1707 TIP3 OH2  OT           -0.834       15.9994       0
    5362 TIP3 1707 TIP3 H1   HT            0.417         1.008       0
    5363 TIP3 1707 TIP3 H2   HT            0.417         1.008       0
    5364 TIP3 1708 TIP3 OH2  OT           -0.834       15.9994       0
    5365 TIP3 1708 TIP3 H1   HT            0.417         1.008       0
    5366 TIP3 1708 TIP3 H2   HT            0.417         1.008       0
    5367 TIP3 1709 TIP3 OH2  OT           -0.834       15.9994       0
    5368 TIP3 1709 TIP3 H1   HT            0.417         1.008       0
    5369 TIP3 1709 TIP3 H2   HT            0.417         1.008       0
    5370 TIP3 1710 TIP3 OH2  OT           -0.834       15.9994       0
    5371 TIP3 1710 TIP3 H1   HT            0.417         1.008       0
    5372 TIP3 1710 TIP3 H2   HT            0.417         1.008       0
    5373 TIP3 1711 TIP3 OH2  OT           -0.834       15.9994       0
    5374 TIP3 1711 TIP3 H1   HT            0.417         1.008       0
    5375 TIP3 1711 TIP3 H2   HT            0.417         1.008       0
    5376 TIP3 1712 TIP3 OH2  OT           -0.834       15.9994       0
    5377 TIP3 1712 TIP3 H1   HT            0.417         1.008       0
    5378 TIP3 1712 TIP3 H2   HT            0.417         1.008       0
    5379 TIP3 1713 TIP3 OH2  OT           -0.834       15.9994       0
    5380 TIP3 1713 TIP3 H1   HT            0.417         1.008       0
    5381 TIP3 1713 TIP3 H2   HT            0.417         1.008       0
    5382 TIP3 1714 TIP3 OH2  OT           -0.834       15.9994       0
    5383 TIP3 1714 TIP3 H1   HT            0.417         1.008       0
    5384 TIP3 1714 TIP3 H2   HT            0.417         1.008       0
    5385 TIP3 1715 TIP3 OH2  OT           -0.834       15.9994       0
    5386 TIP3 1715 TIP3 H1   HT            0.417         1.008       0
    5387 TIP3 1715 TIP3 H2   HT            0.417         1.008       0
    5388 TIP3 1716 TIP3 OH2  OT           -0.834       15.9994       0
    5389 TIP3 1716 TIP3 H1   HT            0.417         1.008       0
    5390 TIP3 1716 TIP3 H2   HT            0.417         1.008       0
    5391 TIP3 1717 TIP3 OH2  OT           -0.834       15.9994       0
    5392 TIP3 1717 TIP3 H1   HT            0.417         1.008       0
    5393 TIP3 1717 TIP3 H2   HT            0.417         1.008       0
    5394 TIP3 1718 TIP3 OH2  OT           -0.834       15.9994       0
    5395 TIP3 1718 TIP3 H1   HT            0.417         1.008       0
    5396 TIP3 1718 TIP3 H2   HT            0.417         1.008       0
    5397 TIP3 1719 TIP3 OH2  OT           -0.834       15.9994       0
    5398 TIP3 1719 TIP3 H1   HT            0.417         1.008       0
    5399 TIP3 1719 TIP3 H2   HT            0.417         1.008       0
    5400 TIP3 1720 TIP3 OH2  OT           -0.834       15.9994       0
    5401 TIP3 1720 TIP3 H1   HT            0.417         1.008       0
    5402 TIP3 1720 TIP3 H2   HT            0.417         1.008       0
    5403 TIP3 1721 TIP3 OH2  OT           -0.834       15.9994       0
    5404 TIP3 1721 TIP3 H1   HT            0.417         1.008       0
    5405 TIP3 1721 TIP3 H2   HT            0.417         1.008       0
    5406 TIP3 1722 TIP3 OH2  OT           -0.834       15.9994       0
    5407 TIP3 1722 TIP3 H1   HT            0.417         1.008       0
    5408 TIP3 1722 TIP3 H2   HT            0.417         1.008       0
    5409 TIP3 1723 TIP3 OH2  OT           -0.834       15.9994       0
    5410 TIP3 1723 TIP3 H1   HT            0.417         1.008       0
    5411 TIP3 1723 TIP3 H2   HT            0.417         1.008       0
    5412 TIP3 1724 TIP3 OH2  OT           -0.834       15.9994       0
    5413 TIP3 1724 TIP3 H1   HT            0.417         1.008       0
    5414 TIP3 1724 TIP3 H2   HT            0.417         1.008       0
    5415 TIP3 1725 TIP3 OH2  OT           -0.834       15.9994       0
    5416 TIP3 1725 TIP3 H1   HT            0.417         1.008       0
    5417 TIP3 1725 TIP3 H2   HT            0.417         1.008       0
    5418 TIP3 1726 TIP3 OH2  OT           -0.834       15.9994       0
    5419 TIP3 1726 TIP3 H1   HT            0.417         1.008       0
    5420 TIP3 1726 TIP3 H2   HT            0.417         1.008       0
    5421 TIP3 1727 TIP3 OH2  OT           -0.834       15.9994       0
    5422 TIP3 1727 TIP3 H1   HT            0.417         1.008       0
    5423 TIP3 1727 TIP3 H2   HT            0.417         1.008       0
    5424 TIP3 1728 TIP3 OH2  OT           -0.834       15.9994       0
    5425 TIP3 1728 TIP3 H1   HT            0.417         1.008       0
    5426 TIP3 1728 TIP3 H2   HT            0.417         1.008       0
    5427 TIP3 1729 TIP3 OH2  OT           -0.834       15.9994       0
    5428 TIP3 1729 TIP3 H1   HT            0.417         1.008       0
    5429 TIP3 1729 TIP3 H2   HT            0.417         1.008       0
    5430 TIP3 1730 TIP3 OH2  OT           -0.834       15.9994       0
    5431 TIP3 1730 TIP3 H1   HT            0.417         1.008       0
    5432 TIP3 1730 TIP3 H2   HT            0.417         1.008       0
    5433 TIP3 1731 TIP3 OH2  OT           -0.834       15.9994       0
    5434 TIP3 1731 TIP3 H1   HT            0.417         1.008       0
    5435 TIP3 1731 TIP3 H2   HT            0.417         1.008       0
    5436 TIP3 1732 TIP3 OH2  OT           -0.834       15.9994       0
    5437 TIP3 1732 TIP3 H1   HT            0.417         1.008       0
    5438 TIP3 1732 TIP3 H2   HT            0.417         1.008       0
    5439 TIP3 1733 TIP3 OH2  OT           -0.834       15.9994       0
    5440 TIP3 1733 TIP3 H1   HT            0.417         1.008       0
    5441 TIP3 1733 TIP3 H2   HT            0.417         1.008       0
    5442 TIP3 1734 TIP3 OH2  OT           -0.834       15.9994       0
    5443 TIP3 1734 TIP3 H1   HT            0.417         1.008       0
    5444 TIP3 1734 TIP3 H2   HT            0.417         1.008       0
    5445 TIP3 1735 TIP3 OH2  OT           -0.834       15.9994       0
    5446 TIP3 1735 TIP3 H1   HT            0.417         1.008       0
    5447 TIP3 1735 TIP3 H2   HT            0.417         1.008       0
    5448 TIP3 1736 TIP3 OH2  OT           -0.834       15.9994       0
    5449 TIP3 1736 TIP3 H1   HT            0.417         1.008       0
    5450 TIP3 1736 TIP3 H2   HT            0.417         1.008       0
    5451 TIP3 1737 TIP3 OH2  OT           -0.834       15.9994       0
    5452 TIP3 1737 TIP3 H1   HT            0.417         1.008       0
    5453 TIP3 1737 TIP3 H2   HT            0.417         1.008       0
    5454 TIP3 1738 TIP3 OH2  OT           -0.834       15.9994       0
    5455 TIP3 1738 TIP3 H1   HT            0.417         1.008       0
    5456 TIP3 1738 TIP3 H2   HT            0.417         1.008       0
    5457 TIP3 1739 TIP3 OH2  OT           -0.834       15.9994       0
    5458 TIP3 1739 TIP3 H1   HT            0.417         1.008       0
    5459 TIP3 1739 TIP3 H2   HT            0.417         1.008       0
    5460 TIP3 1740 TIP3 OH2  OT           -0.834       15.9994       0
    5461 TIP3 1740 TIP3 H1   HT            0.417         1.008       0
    5462 TIP3 1740 TIP3 H2   HT            0.417         1.008       0
    5463 TIP3 1741 TIP3 OH2  OT           -0.834       15.9994       0
    5464 TIP3 1741 TIP3 H1   HT            0.417         1.008       0
    5465 TIP3 1741 TIP3 H2   HT            0.417         1.008       0
    5466 TIP3 1742 TIP3 OH2  OT           -0.834       15.9994       0
    5467 TIP3 1742 TIP3 H1   HT            0.417         1.008       0
    5468 TIP3 1742 TIP3 H2   HT            0.417         1.008       0
    5469 TIP3 1743 TIP3 OH2  OT           -0.834       15.9994       0
    5470 TIP3 1743 TIP3 H1   HT            0.417         1.008       0
    5471 TIP3 1743 TIP3 H2   HT            0.417         1.008       0
    5472 TIP3 1744 TIP3 OH2  OT           -0.834       15.9994       0
    5473 TIP3 1744 TIP3 H1   HT            0.417         1.008       0
    5474 TIP3 1744 TIP3 H2   HT            0.417         1.008       0
    5475 TIP3 1745 TIP3 OH2  OT           -0.834       15.9994       0
    5476 TIP3 1745 TIP3 H1   HT            0.417         1.008       0
    5477 TIP3 1745 TIP3 H2   HT            0.417         1.008       0
    5478 TIP3 1746 TIP3 OH2  OT           -0.834       15.9994       0
    5479 TIP3 1746 TIP3 H1   HT            0.417         1.008       0
    5480 TIP3 1746 TIP3 H2   HT            0.417         1.008       0
    5481 TIP3 1747 TIP3 OH2  OT           -0.834       15.9994       0
    5482 TIP3 1747 TIP3 H1   HT            0.417         1.008       0
    5483 TIP3 1747 TIP3 H2   HT            0.417         1.008       0
    5484 TIP3 1748 TIP3 OH2  OT           -0.834       15.9994       0
    5485 TIP3 1748 TIP3 H1   HT            0.417         1.008       0
    5486 TIP3 1748 TIP3 H2   HT            0.417         1.008       0
    5487 TIP3 1749 TIP3 OH2  OT           -0.834       15.9994       0
    5488 TIP3 1749 TIP3 H1   HT            0.417         1.008       0
    5489 TIP3 1749 TIP3 H2   HT            0.417         1.008       0
    5490 TIP3 1750 TIP3 OH2  OT           -0.834       15.9994       0
    5491 TIP3 1750 TIP3 H1   HT            0.417         1.008       0
    5492 TIP3 1750 TIP3 H2   HT            0.417         1.008       0
    5493 TIP3 1751 TIP3 OH2  OT           -0.834       15.9994       0
    5494 TIP3 1751 TIP3 H1   HT            0.417         1.008       0
    5495 TIP3 1751 TIP3 H2   HT            0.417         1.008       0
    5496 TIP3 1752 TIP3 OH2  OT           -0.834       15.9994       0
    5497 TIP3 1752 TIP3 H1   HT            0.417         1.008       0
    5498 TIP3 1752 TIP3 H2   HT            0.417         1.008       0
    5499 TIP3 1753 TIP3 OH2  OT           -0.834       15.9994       0
    5500 TIP3 1753 TIP3 H1   HT            0.417         1.008       0
    5501 TIP3 1753 TIP3 H2   HT            0.417         1.008       0
    5502 TIP3 1754 TIP3 OH2  OT           -0.834       15.9994       0
    5503 TIP3 1754 TIP3 H1   HT            0.417         1.008       0
    5504 TIP3 1754 TIP3 H2   HT            0.417         1.008       0
    5505 TIP3 1755 TIP3 OH2  OT           -0.834       15.9994       0
    5506 TIP3 1755 TIP3 H1   HT            0.417         1.008       0
    5507 TIP3 1755 TIP3 H2   HT            0.417         1.008       0
    5508 TIP3 1756 TIP3 OH2  OT           -0.834       15.9994       0
    5509 TIP3 1756 TIP3 H1   HT            0.417         1.008       0
    5510 TIP3 1756 TIP3 H2   HT            0.417         1.008       0
    5511 TIP3 1757 TIP3 OH2  OT           -0.834       15.9994       0
    5512 TIP3 1757 TIP3 H1   HT            0.417         1.008       0
    5513 TIP3 1757 TIP3 H2   HT            0.417         1.008       0
    5514 TIP3 1758 TIP3 OH2  OT           -0.834       15.9994       0
    5515 TIP3 1758 TIP3 H1   HT            0.417         1.008       0
    5516 TIP3 1758 TIP3 H2   HT            0.417         1.008       0
    5517 TIP3 1759 TIP3 OH2  OT           -0.834       15.9994       0
    5518 TIP3 1759 TIP3 H1   HT            0.417         1.008       0
    5519 TIP3 1759 TIP3 H2   HT            0.417         1.008       0
    5520 TIP3 1760 TIP3 OH2  OT           -0.834       15.9994       0
    5521 TIP3 1760 TIP3 H1   HT            0.417         1.008       0
    5522 TIP3 1760 TIP3 H2   HT            0.417         1.008       0
    5523 TIP3 1761 TIP3 OH2  OT           -0.834       15.9994       0
    5524 TIP3 1761 TIP3 H1   HT            0.417         1.008       0
    5525 TIP3 1761 TIP3 H2   HT            0.417         1.008       0
    5526 TIP3 1762 TIP3 OH2  OT           -0.834       15.9994       0
    5527 TIP3 1762 TIP3 H1   HT            0.417         1.008       0
    5528 TIP3 1762 TIP3 H2   HT            0.417         1.008       0
    5529 TIP3 1763 TIP3 OH2  OT           -0.834       15.9994       0
    5530 TIP3 1763 TIP3 H1   HT            0.417         1.008       0
    5531 TIP3 1763 TIP3 H2   HT            0.417         1.008       0
    5532 TIP3 1764 TIP3 OH2  OT           -0.834       15.9994       0
    5533 TIP3 1764 TIP3 H1   HT            0.417         1.008       0
    5534 TIP3 1764 TIP3 H2   HT            0.417         1.008       0
    5535 TIP3 1765 TIP3 OH2  OT           -0.834       15.9994       0
    5536 TIP3 1765 TIP3 H1   HT            0.417         1.008       0
    5537 TIP3 1765 TIP3 H2   HT            0.417         1.008       0
    5538 TIP3 1766 TIP3 OH2  OT           -0.834       15.9994       0
    5539 TIP3 1766 TIP3 H1   HT            0.417         1.008       0
    5540 TIP3 1766 TIP3 H2   HT            0.417         1.008       0
    5541 TIP3 1767 TIP3 OH2  OT           -0.834       15.9994       0
    5542 TIP3 1767 TIP3 H1   HT            0.417         1.008       0
    5543 TIP3 1767 TIP3 H2   HT            0.417         1.008       0
    5544 TIP3 1768 TIP3 OH2  OT           -0.834       15.9994       0
    5545 TIP3 1768 TIP3 H1   HT            0.417         1.008       0
    5546 TIP3 1768 TIP3 H2   HT            0.417         1.008       0
    5547 TIP3 1769 TIP3 OH2  OT           -0.834       15.9994       0
    5548 TIP3 1769 TIP3 H1   HT            0.417         1.008       0
    5549 TIP3 1769 TIP3 H2   HT            0.417         1.008       0
    5550 TIP3 1770 TIP3 OH2  OT           -0.834       15.9994       0
    5551 TIP3 1770 TIP3 H1   HT            0.417         1.008       0
    5552 TIP3 1770 TIP3 H2   HT            0.417         1.008       0
    5553 TIP3 1771 TIP3 OH2  OT           -0.834       15.9994       0
    5554 TIP3 1771 TIP3 H1   HT            0.417         1.008       0
    5555 TIP3 1771 TIP3 H2   HT            0.417         1.008       0
    5556 TIP3 1772 TIP3 OH2  OT           -0.834       15.9994       0
    5557 TIP3 1772 TIP3 H1   HT            0.417         1.008       0
    5558 TIP3 1772 TIP3 H2   HT            0.417         1.008       0
    5559 TIP3 1773 TIP3 OH2  OT           -0.834       15.9994       0
    5560 TIP3 1773 TIP3 H1   HT            0.417         1.008       0
    5561 TIP3 1773 TIP3 H2   HT            0.417         1.008       0
    5562 TIP3 1774 TIP3 OH2  OT           -0.834       15.9994       0
    5563 TIP3 1774 TIP3 H1   HT            0.417         1.008       0
    5564 TIP3 1774 TIP3 H2   HT            0.417         1.008       0
    5565 TIP3 1775 TIP3 OH2  OT           -0.834       15.9994       0
    5566 TIP3 1775 TIP3 H1   HT            0.417         1.008       0
    5567 TIP3 1775 TIP3 H2   HT            0.417         1.008       0
    5568 TIP3 1776 TIP3 OH2  OT           -0.834       15.9994       0
    5569 TIP3 1776 TIP3 H1   HT            0.417         1.008       0
    5570 TIP3 1776 TIP3 H2   HT            0.417         1.008       0
    5571 TIP3 1777 TIP3 OH2  OT           -0.834       15.9994       0
    5572 TIP3 1777 TIP3 H1   HT            0.417         1.008       0
    5573 TIP3 1777 TIP3 H2   HT            0.417         1.008       0
    5574 TIP3 1778 TIP3 OH2  OT           -0.834       15.9994       0
    5575 TIP3 1778 TIP3 H1   HT            0.417         1.008       0
    5576 TIP3 1778 TIP3 H2   HT            0.417         1.008       0
    5577 TIP3 1779 TIP3 OH2  OT           -0.834       15.9994       0
    5578 TIP3 1779 TIP3 H1   HT            0.417         1.008       0
    5579 TIP3 1779 TIP3 H2   HT            0.417         1.008       0
    5580 TIP3 1780 TIP3 OH2  OT           -0.834       15.9994       0
    5581 TIP3 1780 TIP3 H1   HT            0.417         1.008       0
    5582 TIP3 1780 TIP3 H2   HT            0.417         1.008       0
    5583 TIP3 1781 TIP3 OH2  OT           -0.834       15.9994       0
    5584 TIP3 1781 TIP3 H1   HT            0.417         1.008       0
    5585 TIP3 1781 TIP3 H2   HT            0.417         1.008       0
    5586 TIP3 1782 TIP3 OH2  OT           -0.834       15.9994       0
    5587 TIP3 1782 TIP3 H1   HT            0.417         1.008       0
    5588 TIP3 1782 TIP3 H2   HT            0.417         1.008       0
    5589 TIP3 1783 TIP3 OH2  OT           -0.834       15.9994       0
    5590 TIP3 1783 TIP3 H1   HT            0.417         1.008       0
    5591 TIP3 1783 TIP3 H2   HT            0.417         1.008       0
    5592 TIP3 1784 TIP3 OH2  OT           -0.834       15.9994       0
    5593 TIP3 1784 TIP3 H1   HT            0.417         1.008       0
    5594 TIP3 1784 TIP3 H2   HT            0.417         1.008       0
    5595 TIP3 1785 TIP3 OH2  OT           -0.834       15.9994       0
    5596 TIP3 1785 TIP3 H1   HT            0.417         1.008       0
    5597 TIP3 1785 TIP3 H2   HT            0.417         1.008       0
    5598 TIP3 1786 TIP3 OH2  OT           -0.834       15.9994       0
    5599 TIP3 1786 TIP3 H1   HT            0.417         1.008       0
    5600 TIP3 1786 TIP3 H2   HT            0.417         1.008       0
    5601 TIP3 1787 TIP3 OH2  OT           -0.834       15.9994       0
    5602 TIP3 1787 TIP3 H1   HT            0.417         1.008       0
    5603 TIP3 1787 TIP3 H2   HT            0.417         1.008       0
    5604 TIP3 1788 TIP3 OH2  OT           -0.834       15.9994       0
    5605 TIP3 1788 TIP3 H1   HT            0.417         1.008       0
    5606 TIP3 1788 TIP3 H2   HT            0.417         1.008       0
    5607 TIP3 1789 TIP3 OH2  OT           -0.834       15.9994       0
    5608 TIP3 1789 TIP3 H1   HT            0.417         1.008       0
    5609 TIP3 1789 TIP3 H2   HT            0.417         1.008       0
    5610 TIP3 1790 TIP3 OH2  OT           -0.834       15.9994       0
    5611 TIP3 1790 TIP3 H1   HT            0.417         1.008       0
    5612 TIP3 1790 TIP3 H2   HT            0.417         1.008       0
    5613 TIP3 1791 TIP3 OH2  OT           -0.834       15.9994       0
    5614 TIP3 1791 TIP3 H1   HT            0.417         1.008       0
    5615 TIP3 1791 TIP3 H2   HT            0.417         1.008       0
    5616 TIP3 1792 TIP3 OH2  OT           -0.834       15.9994       0
    5617 TIP3 1792 TIP3 H1   HT            0.417         1.008       0
    5618 TIP3 1792 TIP3 H2   HT            0.417         1.008       0
    5619 TIP3 1793 TIP3 OH2  OT           -0.834       15.9994       0
    5620 TIP3 1793 TIP3 H1   HT            0.417         1.008       0
    5621 TIP3 1793 TIP3 H2   HT            0.417         1.008       0
    5622 TIP3 1794 TIP3 OH2  OT           -0.834       15.9994       0
    5623 TIP3 1794 TIP3 H1   HT            0.417         1.008       0
    5624 TIP3 1794 TIP3 H2   HT            0.417         1.008       0
    5625 TIP3 1795 TIP3 OH2  OT           -0.834       15.9994       0
    5626 TIP3 1795 TIP3 H1   HT            0.417         1.008       0
    5627 TIP3 1795 TIP3 H2   HT            0.417         1.008       0
    5628 TIP3 1796 TIP3 OH2  OT           -0.834       15.9994       0
    5629 TIP3 1796 TIP3 H1   HT            0.417         1.008       0
    5630 TIP3 1796 TIP3 H2   HT            0.417         1.008       0
    5631 TIP3 1797 TIP3 OH2  OT           -0.834       15.9994       0
    5632 TIP3 1797 TIP3 H1   HT            0.417         1.008       0
    5633 TIP3 1797 TIP3 H2   HT            0.417         1.008       0
    5634 TIP3 1798 TIP3 OH2  OT           -0.834       15.9994       0
    5635 TIP3 1798 TIP3 H1   HT            0.417         1.008       0
    5636 TIP3 1798 TIP3 H2   HT            0.417         1.008       0
    5637 TIP3 1799 TIP3 OH2  OT           -0.834       15.9994       0
    5638 TIP3 1799 TIP3 H1   HT            0.417         1.008       0
    5639 TIP3 1799 TIP3 H2   HT            0.417         1.008       0
    5640 TIP3 1800 TIP3 OH2  OT           -0.834       15.9994       0
    5641 TIP3 1800 TIP3 H1   HT            0.417         1.008       0
    5642 TIP3 1800 TIP3 H2   HT            0.417         1.008       0
    5643 TIP3 1801 TIP3 OH2  OT           -0.834       15.9994       0
    5644 TIP3 1801 TIP3 H1   HT            0.417         1.008       0
    5645 TIP3 1801 TIP3 H2   HT            0.417         1.008       0
    5646 TIP3 1802 TIP3 OH2  OT           -0.834       15.9994       0
    5647 TIP3 1802 TIP3 H1   HT            0.417         1.008       0
    5648 TIP3 1802 TIP3 H2   HT            0.417         1.008       0
    5649 TIP3 1803 TIP3 OH2  OT           -0.834       15.9994       0
    5650 TIP3 1803 TIP3 H1   HT            0.417         1.008       0
    5651 TIP3 1803 TIP3 H2   HT            0.417         1.008       0
    5652 TIP3 1804 TIP3 OH2  OT           -0.834       15.9994       0
    5653 TIP3 1804 TIP3 H1   HT            0.417         1.008       0
    5654 TIP3 1804 TIP3 H2   HT            0.417         1.008       0
    5655 TIP3 1805 TIP3 OH2  OT           -0.834       15.9994       0
    5656 TIP3 1805 TIP3 H1   HT            0.417         1.008       0
    5657 TIP3 1805 TIP3 H2   HT            0.417         1.008       0
    5658 TIP3 1806 TIP3 OH2  OT           -0.834       15.9994       0
    5659 TIP3 1806 TIP3 H1   HT            0.417         1.008       0
    5660 TIP3 1806 TIP3 H2   HT            0.417         1.008       0
    5661 TIP3 1807 TIP3 OH2  OT           -0.834       15.9994       0
    5662 TIP3 1807 TIP3 H1   HT            0.417         1.008       0
    5663 TIP3 1807 TIP3 H2   HT            0.417         1.008       0
    5664 TIP3 1808 TIP3 OH2  OT           -0.834       15.9994       0
    5665 TIP3 1808 TIP3 H1   HT            0.417         1.008       0
    5666 TIP3 1808 TIP3 H2   HT            0.417         1.008       0
    5667 TIP3 1809 TIP3 OH2  OT           -0.834       15.9994       0
    5668 TIP3 1809 TIP3 H1   HT            0.417         1.008       0
    5669 TIP3 1809 TIP3 H2   HT            0.417         1.008       0
    5670 TIP3 1810 TIP3 OH2  OT           -0.834       15.9994       0
    5671 TIP3 1810 TIP3 H1   HT            0.417         1.008       0
    5672 TIP3 1810 TIP3 H2   HT            0.417         1.008       0
    5673 TIP3 1811 TIP3 OH2  OT           -0.834       15.9994       0
    5674 TIP3 1811 TIP3 H1   HT            0.417         1.008       0
    5675 TIP3 1811 TIP3 H2   HT            0.417         1.008       0
    5676 TIP3 1812 TIP3 OH2  OT           -0.834       15.9994       0
    5677 TIP3 1812 TIP3 H1   HT            0.417         1.008       0
    5678 TIP3 1812 TIP3 H2   HT            0.417         1.008       0
    5679 TIP3 1813 TIP3 OH2  OT           -0.834       15.9994       0
    5680 TIP3 1813 TIP3 H1   HT            0.417         1.008       0
    5681 TIP3 1813 TIP3 H2   HT            0.417         1.008       0
    5682 TIP3 1814 TIP3 OH2  OT           -0.834       15.9994       0
    5683 TIP3 1814 TIP3 H1   HT            0.417         1.008       0
    5684 TIP3 1814 TIP3 H2   HT            0.417         1.008       0
    5685 TIP3 1815 TIP3 OH2  OT           -0.834       15.9994       0
    5686 TIP3 1815 TIP3 H1   HT            0.417         1.008       0
    5687 TIP3 1815 TIP3 H2   HT            0.417         1.008       0
    5688 TIP3 1816 TIP3 OH2  OT           -0.834       15.9994       0
    5689 TIP3 1816 TIP3 H1   HT            0.417         1.008       0
    5690 TIP3 1816 TIP3 H2   HT            0.417         1.008       0
    5691 TIP3 1817 TIP3 OH2  OT           -0.834       15.9994       0
    5692 TIP3 1817 TIP3 H1   HT            0.417         1.008       0
    5693 TIP3 1817 TIP3 H2   HT            0.417         1.008       0
    5694 TIP3 1818 TIP3 OH2  OT           -0.834       15.9994       0
    5695 TIP3 1818 TIP3 H1   HT            0.417         1.008       0
    5696 TIP3 1818 TIP3 H2   HT            0.417         1.008       0
    5697 TIP3 1819 TIP3 OH2  OT           -0.834       15.9994       0
    5698 TIP3 1819 TIP3 H1   HT            0.417         1.008       0
    5699 TIP3 1819 TIP3 H2   HT            0.417         1.008       0
    5700 TIP3 1820 TIP3 OH2  OT           -0.834       15.9994       0
    5701 TIP3 1820 TIP3 H1   HT            0.417         1.008       0
    5702 TIP3 1820 TIP3 H2   HT            0.417         1.008       0
    5703 TIP3 1821 TIP3 OH2  OT           -0.834       15.9994       0
    5704 TIP3 1821 TIP3 H1   HT            0.417         1.008       0
    5705 TIP3 1821 TIP3 H2   HT            0.417         1.008       0
    5706 TIP3 1822 TIP3 OH2  OT           -0.834       15.9994       0
    5707 TIP3 1822 TIP3 H1   HT            0.417         1.008       0
    5708 TIP3 1822 TIP3 H2   HT            0.417         1.008       0
    5709 TIP3 1823 TIP3 OH2  OT           -0.834       15.9994       0
    5710 TIP3 1823 TIP3 H1   HT            0.417         1.008       0
    5711 TIP3 1823 TIP3 H2   HT            0.417         1.008       0
    5712 TIP3 1824 TIP3 OH2  OT           -0.834       15.9994       0
    5713 TIP3 1824 TIP3 H1   HT            0.417         1.008       0
    5714 TIP3 1824 TIP3 H2   HT            0.417         1.008       0
    5715 TIP3 1825 TIP3 OH2  OT           -0.834       15.9994       0
    5716 TIP3 1825 TIP3 H1   HT            0.417         1.008       0
    5717 TIP3 1825 TIP3 H2   HT            0.417         1.008       0
    5718 TIP3 1826 TIP3 OH2  OT           -0.834       15.9994       0
    5719 TIP3 1826 TIP3 H1   HT            0.417         1.008       0
    5720 TIP3 1826 TIP3 H2   HT            0.417         1.008       0
    5721 TIP3 1827 TIP3 OH2  OT           -0.834       15.9994       0
    5722 TIP3 1827 TIP3 H1   HT            0.417         1.008       0
    5723 TIP3 1827 TIP3 H2   HT            0.417         1.008       0
    5724 TIP3 1828 TIP3 OH2  OT           -0.834       15.9994       0
    5725 TIP3 1828 TIP3 H1   HT            0.417         1.008       0
    5726 TIP3 1828 TIP3 H2   HT            0.417         1.008       0
    5727 TIP3 1829 TIP3 OH2  OT           -0.834       15.9994       0
    5728 TIP3 1829 TIP3 H1   HT            0.417         1.008       0
    5729 TIP3 1829 TIP3 H2   HT            0.417         1.008       0
    5730 TIP3 1830 TIP3 OH2  OT           -0.834       15.9994       0
    5731 TIP3 1830 TIP3 H1   HT            0.417         1.008       0
    5732 TIP3 1830 TIP3 H2   HT            0.417         1.008       0
    5733 TIP3 1831 TIP3 OH2  OT           -0.834       15.9994       0
    5734 TIP3 1831 TIP3 H1   HT            0.417         1.008       0
    5735 TIP3 1831 TIP3 H2   HT            0.417         1.008       0
    5736 TIP3 1832 TIP3 OH2  OT           -0.834       15.9994       0
    5737 TIP3 1832 TIP3 H1   HT            0.417         1.008       0
    5738 TIP3 1832 TIP3 H2   HT            0.417         1.008       0
    5739 TIP3 1833 TIP3 OH2  OT           -0.834       15.9994       0
    5740 TIP3 1833 TIP3 H1   HT            0.417         1.008       0
    5741 TIP3 1833 TIP3 H2   HT            0.417         1.008       0
    5742 TIP3 1834 TIP3 OH2  OT           -0.834       15.9994       0
    5743 TIP3 1834 TIP3 H1   HT            0.417         1.008       0
    5744 TIP3 1834 TIP3 H2   HT            0.417         1.008       0
    5745 TIP3 1835 TIP3 OH2  OT           -0.834       15.9994       0
    5746 TIP3 1835 TIP3 H1   HT            0.417         1.008       0
    5747 TIP3 1835 TIP3 H2   HT            0.417         1.008       0
    5748 TIP3 1836 TIP3 OH2  OT           -0.834       15.9994       0
    5749 TIP3 1836 TIP3 H1   HT            0.417         1.008       0
    5750 TIP3 1836 TIP3 H2   HT            0.417         1.008       0
    5751 TIP3 1837 TIP3 OH2  OT           -0.834       15.9994       0
    5752 TIP3 1837 TIP3 H1   HT            0.417         1.008       0
    5753 TIP3 1837 TIP3 H2   HT            0.417         1.008       0
    5754 TIP3 1838 TIP3 OH2  OT           -0.834       15.9994       0
    5755 TIP3 1838 TIP3 H1   HT            0.417         1.008       0
    5756 TIP3 1838 TIP3 H2   HT            0.417         1.008       0
    5757 TIP3 1839 TIP3 OH2  OT           -0.834       15.9994       0
    5758 TIP3 1839 TIP3 H1   HT            0.417         1.008       0
    5759 TIP3 1839 TIP3 H2   HT            0.417         1.008       0
    5760 TIP3 1840 TIP3 OH2  OT           -0.834       15.9994       0
    5761 TIP3 1840 TIP3 H1   HT            0.417         1.008       0
    5762 TIP3 1840 TIP3 H2   HT            0.417         1.008       0
    5763 TIP3 1841 TIP3 OH2  OT           -0.834       15.9994       0
    5764 TIP3 1841 TIP3 H1   HT            0.417         1.008       0
    5765 TIP3 1841 TIP3 H2   HT            0.417         1.008       0
    5766 TIP3 1842 TIP3 OH2  OT           -0.834       15.9994       0
    5767 TIP3 1842 TIP3 H1   HT            0.417         1.008       0
    5768 TIP3 1842 TIP3 H2   HT            0.417         1.008       0
    5769 TIP3 1843 TIP3 OH2  OT           -0.834       15.9994       0
    5770 TIP3 1843 TIP3 H1   HT            0.417         1.008       0
    5771 TIP3 1843 TIP3 H2   HT            0.417         1.008       0
    5772 TIP3 1844 TIP3 OH2  OT           -0.834       15.9994       0
    5773 TIP3 1844 TIP3 H1   HT            0.417         1.008       0
    5774 TIP3 1844 TIP3 H2   HT            0.417         1.008       0
    5775 TIP3 1845 TIP3 OH2  OT           -0.834       15.9994       0
    5776 TIP3 1845 TIP3 H1   HT            0.417         1.008       0
    5777 TIP3 1845 TIP3 H2   HT            0.417         1.008       0
    5778 TIP3 1846 TIP3 OH2  OT           -0.834       15.9994       0
    5779 TIP3 1846 TIP3 H1   HT            0.417         1.008       0
    5780 TIP3 1846 TIP3 H2   HT            0.417         1.008       0
    5781 TIP3 1847 TIP3 OH2  OT           -0.834       15.9994       0
    5782 TIP3 1847 TIP3 H1   HT            0.417         1.008       0
    5783 TIP3 1847 TIP3 H2   HT            0.417         1.008       0
    5784 TIP3 1848 TIP3 OH2  OT           -0.834       15.9994       0
    5785 TIP3 1848 TIP3 H1   HT            0.417         1.008       0
    5786 TIP3 1848 TIP3 H2   HT            0.417         1.008       0
    5787 TIP3 1849 TIP3 OH2  OT           -0.834       15.9994       0
    5788 TIP3 1849 TIP3 H1   HT            0.417         1.008       0
    5789 TIP3 1849 TIP3 H2   HT            0.417         1.008       0
    5790 TIP3 1850 TIP3 OH2  OT           -0.834       15.9994       0
    5791 TIP3 1850 TIP3 H1   HT            0.417         1.008       0
    5792 TIP3 1850 TIP3 H2   HT            0.417         1.008       0
    5793 TIP3 1851 TIP3 OH2  OT           -0.834       15.9994       0
    5794 TIP3 1851 TIP3 H1   HT            0.417         1.008       0
    5795 TIP3 1851 TIP3 H2   HT            0.417         1.008       0
    5796 TIP3 1852 TIP3 OH2  OT           -0.834       15.9994       0
    5797 TIP3 1852 TIP3 H1   HT            0.417         1.008       0
    5798 TIP3 1852 TIP3 H2   HT            0.417         1.008       0
    5799 TIP3 1853 TIP3 OH2  OT           -0.834       15.9994       0
    5800 TIP3 1853 TIP3 H1   HT            0.417         1.008       0
    5801 TIP3 1853 TIP3 H2   HT            0.417         1.008       0
    5802 TIP3 1854 TIP3 OH2  OT           -0.834       15.9994       0
    5803 TIP3 1854 TIP3 H1   HT            0.417         1.008       0
    5804 TIP3 1854 TIP3 H2   HT            0.417         1.008       0
    5805 TIP3 1855 TIP3 OH2  OT           -0.834       15.9994       0
    5806 TIP3 1855 TIP3 H1   HT            0.417         1.008       0
    5807 TIP3 1855 TIP3 H2   HT            0.417         1.008       0
    5808 TIP3 1856 TIP3 OH2  OT           -0.834       15.9994       0
    5809 TIP3 1856 TIP3 H1   HT            0.417         1.008       0
    5810 TIP3 1856 TIP3 H2   HT            0.417         1.008       0
    5811 TIP3 1857 TIP3 OH2  OT           -0.834       15.9994       0
    5812 TIP3 1857 TIP3 H1   HT            0.417         1.008       0
    5813 TIP3 1857 TIP3 H2   HT            0.417         1.008       0
    5814 TIP3 1858 TIP3 OH2  OT           -0.834       15.9994       0
    5815 TIP3 1858 TIP3 H1   HT            0.417         1.008       0
    5816 TIP3 1858 TIP3 H2   HT            0.417         1.008       0
    5817 TIP3 1859 TIP3 OH2  OT           -0.834       15.9994       0
    5818 TIP3 1859 TIP3 H1   HT            0.417         1.008       0
    5819 TIP3 1859 TIP3 H2   HT            0.417         1.008       0
    5820 TIP3 1860 TIP3 OH2  OT           -0.834       15.9994       0
    5821 TIP3 1860 TIP3 H1   HT            0.417         1.008       0
    5822 TIP3 1860 TIP3 H2   HT            0.417         1.008       0
    5823 TIP3 1861 TIP3 OH2  OT           -0.834       15.9994       0
    5824 TIP3 1861 TIP3 H1   HT            0.417         1.008       0
    5825 TIP3 1861 TIP3 H2   HT            0.417         1.008       0
    5826 TIP3 1862 TIP3 OH2  OT           -0.834       15.9994       0
    5827 TIP3 1862 TIP3 H1   HT            0.417         1.008       0
    5828 TIP3 1862 TIP3 H2   HT            0.417         1.008       0
    5829 TIP3 1863 TIP3 OH2  OT           -0.834       15.9994       0
    5830 TIP3 1863 TIP3 H1   HT            0.417         1.008       0
    5831 TIP3 1863 TIP3 H2   HT            0.417         1.008       0
    5832 TIP3 1864 TIP3 OH2  OT           -0.834       15.9994       0
    5833 TIP3 1864 TIP3 H1   HT            0.417         1.008       0
    5834 TIP3 1864 TIP3 H2   HT            0.417         1.008       0
    5835 TIP3 1865 TIP3 OH2  OT           -0.834       15.9994       0
    5836 TIP3 1865 TIP3 H1   HT            0.417         1.008       0
    5837 TIP3 1865 TIP3 H2   HT            0.417         1.008       0
    5838 TIP3 1866 TIP3 OH2  OT           -0.834       15.9994       0
    5839 TIP3 1866 TIP3 H1   HT            0.417         1.008       0
    5840 TIP3 1866 TIP3 H2   HT            0.417         1.008       0
    5841 TIP3 1867 TIP3 OH2  OT           -0.834       15.9994       0
    5842 TIP3 1867 TIP3 H1   HT            0.417         1.008       0
    5843 TIP3 1867 TIP3 H2   HT            0.417         1.008       0
    5844 TIP3 1868 TIP3 OH2  OT           -0.834       15.9994       0
    5845 TIP3 1868 TIP3 H1   HT            0.417         1.008       0
    5846 TIP3 1868 TIP3 H2   HT            0.417         1.008       0
    5847 TIP3 1869 TIP3 OH2  OT           -0.834       15.9994       0
    5848 TIP3 1869 TIP3 H1   HT            0.417         1.008       0
    5849 TIP3 1869 TIP3 H2   HT            0.417         1.008       0
    5850 TIP3 1870 TIP3 OH2  OT           -0.834       15.9994       0
    5851 TIP3 1870 TIP3 H1   HT            0.417         1.008       0
    5852 TIP3 1870 TIP3 H2   HT            0.417         1.008       0
    5853 TIP3 1871 TIP3 OH2  OT           -0.834       15.9994       0
    5854 TIP3 1871 TIP3 H1   HT            0.417         1.008       0
    5855 TIP3 1871 TIP3 H2   HT            0.417         1.008       0
    5856 TIP3 1872 TIP3 OH2  OT           -0.834       15.9994       0
    5857 TIP3 1872 TIP3 H1   HT            0.417         1.008       0
    5858 TIP3 1872 TIP3 H2   HT            0.417         1.008       0
    5859 TIP3 1873 TIP3 OH2  OT           -0.834       15.9994       0
    5860 TIP3 1873 TIP3 H1   HT            0.417         1.008       0
    5861 TIP3 1873 TIP3 H2   HT            0.417         1.008       0
    5862 TIP3 1874 TIP3 OH2  OT           -0.834       15.9994       0
    5863 TIP3 1874 TIP3 H1   HT            0.417         1.008       0
    5864 TIP3 1874 TIP3 H2   HT            0.417         1.008       0
    5865 TIP3 1875 TIP3 OH2  OT           -0.834       15.9994       0
    5866 TIP3 1875 TIP3 H1   HT            0.417         1.008       0
    5867 TIP3 1875 TIP3 H2   HT            0.417         1.008       0
    5868 TIP3 1876 TIP3 OH2  OT           -0.834       15.9994       0
    5869 TIP3 1876 TIP3 H1   HT            0.417         1.008       0
    5870 TIP3 1876 TIP3 H2   HT            0.417         1.008       0
    5871 TIP3 1877 TIP3 OH2  OT           -0.834       15.9994       0
    5872 TIP3 1877 TIP3 H1   HT            0.417         1.008       0
    5873 TIP3 1877 TIP3 H2   HT            0.417         1.008       0
    5874 TIP3 1878 TIP3 OH2  OT           -0.834       15.9994       0
    5875 TIP3 1878 TIP3 H1   HT            0.417         1.008       0
    5876 TIP3 1878 TIP3 H2   HT            0.417         1.008       0
    5877 TIP3 1879 TIP3 OH2  OT           -0.834       15.9994       0
    5878 TIP3 1879 TIP3 H1   HT            0.417         1.008       0
    5879 TIP3 1879 TIP3 H2   HT            0.417         1.008       0
    5880 TIP3 1880 TIP3 OH2  OT           -0.834       15.9994       0
    5881 TIP3 1880 TIP3 H1   HT            0.417         1.008       0
    5882 TIP3 1880 TIP3 H2   HT            0.417         1.008       0
    5883 TIP3 1881 TIP3 OH2  OT           -0.834       15.9994       0
    5884 TIP3 1881 TIP3 H1   HT            0.417         1.008       0
    5885 TIP3 1881 TIP3 H2   HT            0.417         1.008       0
    5886 TIP3 1882 TIP3 OH2  OT           -0.834       15.9994       0
    5887 TIP3 1882 TIP3 H1   HT            0.417         1.008       0
    5888 TIP3 1882 TIP3 H2   HT            0.417         1.008       0
    5889 TIP3 1883 TIP3 OH2  OT           -0.834       15.9994       0
    5890 TIP3 1883 TIP3 H1   HT            0.417         1.008       0
    5891 TIP3 1883 TIP3 H2   HT            0.417         1.008       0
    5892 TIP3 1884 TIP3 OH2  OT           -0.834       15.9994       0
    5893 TIP3 1884 TIP3 H1   HT            0.417         1.008       0
    5894 TIP3 1884 TIP3 H2   HT            0.417         1.008       0
    5895 TIP3 1885 TIP3 OH2  OT           -0.834       15.9994       0
    5896 TIP3 1885 TIP3 H1   HT            0.417         1.008       0
    5897 TIP3 1885 TIP3 H2   HT            0.417         1.008       0
    5898 TIP3 1886 TIP3 OH2  OT           -0.834       15.9994       0
    5899 TIP3 1886 TIP3 H1   HT            0.417         1.008       0
    5900 TIP3 1886 TIP3 H2   HT            0.417         1.008       0
    5901 TIP3 1887 TIP3 OH2  OT           -0.834       15.9994       0
    5902 TIP3 1887 TIP3 H1   HT            0.417         1.008       0
    5903 TIP3 1887 TIP3 H2   HT            0.417         1.008       0
    5904 TIP3 1888 TIP3 OH2  OT           -0.834       15.9994       0
    5905 TIP3 1888 TIP3 H1   HT            0.417         1.008       0
    5906 TIP3 1888 TIP3 H2   HT            0.417         1.008       0
    5907 TIP3 1889 TIP3 OH2  OT           -0.834       15.9994       0
    5908 TIP3 1889 TIP3 H1   HT            0.417         1.008       0
    5909 TIP3 1889 TIP3 H2   HT            0.417         1.008       0
    5910 TIP3 1890 TIP3 OH2  OT           -0.834       15.9994       0
    5911 TIP3 1890 TIP3 H1   HT            0.417         1.008       0
    5912 TIP3 1890 TIP3 H2   HT            0.417         1.008       0
    5913 TIP3 1891 TIP3 OH2  OT           -0.834       15.9994       0
    5914 TIP3 1891 TIP3 H1   HT            0.417         1.008       0
    5915 TIP3 1891 TIP3 H2   HT            0.417         1.008       0
    5916 TIP3 1892 TIP3 OH2  OT           -0.834       15.9994       0
    5917 TIP3 1892 TIP3 H1   HT            0.417         1.008       0
    5918 TIP3 1892 TIP3 H2   HT            0.417         1.008       0
    5919 TIP3 1893 TIP3 OH2  OT           -0.834       15.9994       0
    5920 TIP3 1893 TIP3 H1   HT            0.417         1.008       0
    5921 TIP3 1893 TIP3 H2   HT            0.417         1.008       0
    5922 TIP3 1894 TIP3 OH2  OT           -0.834       15.9994       0
    5923 TIP3 1894 TIP3 H1   HT            0.417         1.008       0
    5924 TIP3 1894 TIP3 H2   HT            0.417         1.008       0
    5925 TIP3 1895 TIP3 OH2  OT           -0.834       15.9994       0
    5926 TIP3 1895 TIP3 H1   HT            0.417         1.008       0
    5927 TIP3 1895 TIP3 H2   HT            0.417         1.008       0
    5928 TIP3 1896 TIP3 OH2  OT           -0.834       15.9994       0
    5929 TIP3 1896 TIP3 H1   HT            0.417         1.008       0
    5930 TIP3 1896 TIP3 H2   HT            0.417         1.008       0
    5931 TIP3 1897 TIP3 OH2  OT           -0.834       15.9994       0
    5932 TIP3 1897 TIP3 H1   HT            0.417         1.008       0
    5933 TIP3 1897 TIP3 H2   HT            0.417         1.008       0
    5934 TIP3 1898 TIP3 OH2  OT           -0.834       15.9994       0
    5935 TIP3 1898 TIP3 H1   HT            0.417         1.008       0
    5936 TIP3 1898 TIP3 H2   HT            0.417         1.008       0
    5937 TIP3 1899 TIP3 OH2  OT           -0.834       15.9994       0
    5938 TIP3 1899 TIP3 H1   HT            0.417         1.008       0
    5939 TIP3 1899 TIP3 H2   HT            0.417         1.008       0
    5940 TIP3 1900 TIP3 OH2  OT           -0.834       15.9994       0
    5941 TIP3 1900 TIP3 H1   HT            0.417         1.008       0
    5942 TIP3 1900 TIP3 H2   HT            0.417         1.008       0
    5943 TIP3 1901 TIP3 OH2  OT           -0.834       15.9994       0
    5944 TIP3 1901 TIP3 H1   HT            0.417         1.008       0
    5945 TIP3 1901 TIP3 H2   HT            0.417         1.008       0
    5946 TIP3 1902 TIP3 OH2  OT           -0.834       15.9994       0
    5947 TIP3 1902 TIP3 H1   HT            0.417         1.008       0
    5948 TIP3 1902 TIP3 H2   HT            0.417         1.008       0
    5949 TIP3 1903 TIP3 OH2  OT           -0.834       15.9994       0
    5950 TIP3 1903 TIP3 H1   HT            0.417         1.008       0
    5951 TIP3 1903 TIP3 H2   HT            0.417         1.008       0
    5952 TIP3 1904 TIP3 OH2  OT           -0.834       15.9994       0
    5953 TIP3 1904 TIP3 H1   HT            0.417         1.008       0
    5954 TIP3 1904 TIP3 H2   HT            0.417         1.008       0
    5955 TIP3 1905 TIP3 OH2  OT           -0.834       15.9994       0
    5956 TIP3 1905 TIP3 H1   HT            0.417         1.008       0
    5957 TIP3 1905 TIP3 H2   HT            0.417         1.008       0
    5958 TIP3 1906 TIP3 OH2  OT           -0.834       15.9994       0
    5959 TIP3 1906 TIP3 H1   HT            0.417         1.008       0
    5960 TIP3 1906 TIP3 H2   HT            0.417         1.008       0
    5961 TIP3 1907 TIP3 OH2  OT           -0.834       15.9994       0
    5962 TIP3 1907 TIP3 H1   HT            0.417         1.008       0
    5963 TIP3 1907 TIP3 H2   HT            0.417         1.008       0
    5964 TIP3 1908 TIP3 OH2  OT           -0.834       15.9994       0
    5965 TIP3 1908 TIP3 H1   HT            0.417         1.008       0
    5966 TIP3 1908 TIP3 H2   HT            0.417         1.008       0
    5967 TIP3 1909 TIP3 OH2  OT           -0.834       15.9994       0
    5968 TIP3 1909 TIP3 H1   HT            0.417         1.008       0
    5969 TIP3 1909 TIP3 H2   HT            0.417         1.008       0
    5970 TIP3 1910 TIP3 OH2  OT           -0.834       15.9994       0
    5971 TIP3 1910 TIP3 H1   HT            0.417         1.008       0
    5972 TIP3 1910 TIP3 H2   HT            0.417         1.008       0
    5973 TIP3 1911 TIP3 OH2  OT           -0.834       15.9994       0
    5974 TIP3 1911 TIP3 H1   HT            0.417         1.008       0
    5975 TIP3 1911 TIP3 H2   HT            0.417         1.008       0
    5976 TIP3 1912 TIP3 OH2  OT           -0.834       15.9994       0
    5977 TIP3 1912 TIP3 H1   HT            0.417         1.008       0
    5978 TIP3 1912 TIP3 H2   HT            0.417         1.008       0
    5979 TIP3 1913 TIP3 OH2  OT           -0.834       15.9994       0
    5980 TIP3 1913 TIP3 H1   HT            0.417         1.008       0
    5981 TIP3 1913 TIP3 H2   HT            0.417         1.008       0
    5982 TIP3 1914 TIP3 OH2  OT           -0.834       15.9994       0
    5983 TIP3 1914 TIP3 H1   HT            0.417         1.008       0
    5984 TIP3 1914 TIP3 H2   HT            0.417         1.008       0
    5985 TIP3 1915 TIP3 OH2  OT           -0.834       15.9994       0
    5986 TIP3 1915 TIP3 H1   HT            0.417         1.008       0
    5987 TIP3 1915 TIP3 H2   HT            0.417         1.008       0
    5988 TIP3 1916 TIP3 OH2  OT           -0.834       15.9994       0
    5989 TIP3 1916 TIP3 H1   HT            0.417         1.008       0
    5990 TIP3 1916 TIP3 H2   HT            0.417         1.008       0
    5991 TIP3 1917 TIP3 OH2  OT           -0.834       15.9994       0
    5992 TIP3 1917 TIP3 H1   HT            0.417         1.008       0
    5993 TIP3 1917 TIP3 H2   HT            0.417         1.008       0
    5994 TIP3 1918 TIP3 OH2  OT           -0.834       15.9994       0
    5995 TIP3 1918 TIP3 H1   HT            0.417         1.008       0
    5996 TIP3 1918 TIP3 H2   HT            0.417         1.008       0
    5997 TIP3 1919 TIP3 OH2  OT           -0.834       15.9994       0
    5998 TIP3 1919 TIP3 H1   HT            0.417         1.008       0
    5999 TIP3 1919 TIP3 H2   HT            0.417         1.008       0
    6000 TIP3 1920 TIP3 OH2  OT           -0.834       15.9994       0
    6001 TIP3 1920 TIP3 H1   HT            0.417         1.008       0
    6002 TIP3 1920 TIP3 H2   HT            0.417         1.008       0
    6003 TIP3 1921 TIP3 OH2  OT           -0.834       15.9994       0
    6004 TIP3 1921 TIP3 H1   HT            0.417         1.008       0
    6005 TIP3 1921 TIP3 H2   HT            0.417         1.008       0
    6006 TIP3 1922 TIP3 OH2  OT           -0.834       15.9994       0
    6007 TIP3 1922 TIP3 H1   HT            0.417         1.008       0
    6008 TIP3 1922 TIP3 H2   HT            0.417         1.008       0
    6009 TIP3 1923 TIP3 OH2  OT           -0.834       15.9994       0
    6010 TIP3 1923 TIP3 H1   HT            0.417         1.008       0
    6011 TIP3 1923 TIP3 H2   HT            0.417         1.008       0
    6012 TIP3 1924 TIP3 OH2  OT           -0.834       15.9994       0
    6013 TIP3 1924 TIP3 H1   HT            0.417         1.008       0
    6014 TIP3 1924 TIP3 H2   HT            0.417         1.008       0
    6015 TIP3 1925 TIP3 OH2  OT           -0.834       15.9994       0
    6016 TIP3 1925 TIP3 H1   HT            0.417         1.008       0
    6017 TIP3 1925 TIP3 H2   HT            0.417         1.008       0
    6018 TIP3 1926 TIP3 OH2  OT           -0.834       15.9994       0
    6019 TIP3 1926 TIP3 H1   HT            0.417         1.008       0
    6020 TIP3 1926 TIP3 H2   HT            0.417         1.008       0
    6021 TIP3 1927 TIP3 OH2  OT           -0.834       15.9994       0
    6022 TIP3 1927 TIP3 H1   HT            0.417         1.008       0
    6023 TIP3 1927 TIP3 H2   HT            0.417         1.008       0
    6024 TIP3 1928 TIP3 OH2  OT           -0.834       15.9994       0
    6025 TIP3 1928 TIP3 H1   HT            0.417         1.008       0
    6026 TIP3 1928 TIP3 H2   HT            0.417         1.008       0
    6027 TIP3 1929 TIP3 OH2  OT           -0.834       15.9994       0
    6028 TIP3 1929 TIP3 H1   HT            0.417         1.008       0
    6029 TIP3 1929 TIP3 H2   HT            0.417         1.008       0
    6030 TIP3 1930 TIP3 OH2  OT           -0.834       15.9994       0
    6031 TIP3 1930 TIP3 H1   HT            0.417         1.008       0
    6032 TIP3 1930 TIP3 H2   HT            0.417         1.008       0
    6033 TIP3 1931 TIP3 OH2  OT           -0.834       15.9994       0
    6034 TIP3 1931 TIP3 H1   HT            0.417         1.008       0
    6035 TIP3 1931 TIP3 H2   HT            0.417         1.008       0
    6036 TIP3 1932 TIP3 OH2  OT           -0.834       15.9994       0
    6037 TIP3 1932 TIP3 H1   HT            0.417         1.008       0
    6038 TIP3 1932 TIP3 H2   HT            0.417         1.008       0
    6039 TIP3 1933 TIP3 OH2  OT           -0.834       15.9994       0
    6040 TIP3 1933 TIP3 H1   HT            0.417         1.008       0
    6041 TIP3 1933 TIP3 H2   HT            0.417         1.008       0
    6042 TIP3 1934 TIP3 OH2  OT           -0.834       15.9994       0
    6043 TIP3 1934 TIP3 H1   HT            0.417         1.008       0
    6044 TIP3 1934 TIP3 H2   HT            0.417         1.008       0
    6045 TIP3 1935 TIP3 OH2  OT           -0.834       15.9994       0
    6046 TIP3 1935 TIP3 H1   HT            0.417         1.008       0
    6047 TIP3 1935 TIP3 H2   HT            0.417         1.008       0
    6048 TIP3 1936 TIP3 OH2  OT           -0.834       15.9994       0
    6049 TIP3 1936 TIP3 H1   HT            0.417         1.008       0
    6050 TIP3 1936 TIP3 H2   HT            0.417         1.008       0
    6051 TIP3 1937 TIP3 OH2  OT           -0.834       15.9994       0
    6052 TIP3 1937 TIP3 H1   HT            0.417         1.008       0
    6053 TIP3 1937 TIP3 H2   HT            0.417         1.008       0
    6054 TIP3 1938 TIP3 OH2  OT           -0.834       15.9994       0
    6055 TIP3 1938 TIP3 H1   HT            0.417         1.008       0
    6056 TIP3 1938 TIP3 H2   HT            0.417         1.008       0
    6057 TIP3 1939 TIP3 OH2  OT           -0.834       15.9994       0
    6058 TIP3 1939 TIP3 H1   HT            0.417         1.008       0
    6059 TIP3 1939 TIP3 H2   HT            0.417         1.008       0
    6060 TIP3 1940 TIP3 OH2  OT           -0.834       15.9994       0
    6061 TIP3 1940 TIP3 H1   HT            0.417         1.008       0
    6062 TIP3 1940 TIP3 H2   HT            0.417         1.008       0
    6063 TIP3 1941 TIP3 OH2  OT           -0.834       15.9994       0
    6064 TIP3 1941 TIP3 H1   HT            0.417         1.008       0
    6065 TIP3 1941 TIP3 H2   HT            0.417         1.008       0
    6066 TIP3 1942 TIP3 OH2  OT           -0.834       15.9994       0
    6067 TIP3 1942 TIP3 H1   HT            0.417         1.008       0
    6068 TIP3 1942 TIP3 H2   HT            0.417         1.008       0
    6069 TIP3 1943 TIP3 OH2  OT           -0.834       15.9994       0
    6070 TIP3 1943 TIP3 H1   HT            0.417         1.008       0
    6071 TIP3 1943 TIP3 H2   HT            0.417         1.008       0
    6072 TIP3 1944 TIP3 OH2  OT           -0.834       15.9994       0
    6073 TIP3 1944 TIP3 H1   HT            0.417         1.008       0
    6074 TIP3 1944 TIP3 H2   HT            0.417         1.008       0
    6075 TIP3 1945 TIP3 OH2  OT           -0.834       15.9994       0
    6076 TIP3 1945 TIP3 H1   HT            0.417         1.008       0
    6077 TIP3 1945 TIP3 H2   HT            0.417         1.008       0
    6078 TIP3 1946 TIP3 OH2  OT           -0.834       15.9994       0
    6079 TIP3 1946 TIP3 H1   HT            0.417         1.008       0
    6080 TIP3 1946 TIP3 H2   HT            0.417         1.008       0
    6081 TIP3 1947 TIP3 OH2  OT           -0.834       15.9994       0
    6082 TIP3 1947 TIP3 H1   HT            0.417         1.008       0
    6083 TIP3 1947 TIP3 H2   HT            0.417         1.008       0
    6084 TIP3 1948 TIP3 OH2  OT           -0.834       15.9994       0
    6085 TIP3 1948 TIP3 H1   HT            0.417         1.008       0
    6086 TIP3 1948 TIP3 H2   HT            0.417         1.008       0
    6087 TIP3 1949 TIP3 OH2  OT           -0.834       15.9994       0
    6088 TIP3 1949 TIP3 H1   HT            0.417         1.008       0
    6089 TIP3 1949 TIP3 H2   HT            0.417         1.008       0
    6090 TIP3 1950 TIP3 OH2  OT           -0.834       15.9994       0
    6091 TIP3 1950 TIP3 H1   HT            0.417         1.008       0
    6092 TIP3 1950 TIP3 H2   HT            0.417         1.008       0
    6093 TIP3 1951 TIP3 OH2  OT           -0.834       15.9994       0
    6094 TIP3 1951 TIP3 H1   HT            0.417         1.008       0
    6095 TIP3 1951 TIP3 H2   HT            0.417         1.008       0
    6096 TIP3 1952 TIP3 OH2  OT           -0.834       15.9994       0
    6097 TIP3 1952 TIP3 H1   HT            0.417         1.008       0
    6098 TIP3 1952 TIP3 H2   HT            0.417         1.008       0
    6099 TIP3 1953 TIP3 OH2  OT           -0.834       15.9994       0
    6100 TIP3 1953 TIP3 H1   HT            0.417         1.008       0
    6101 TIP3 1953 TIP3 H2   HT            0.417         1.008       0
    6102 TIP3 1954 TIP3 OH2  OT           -0.834       15.9994       0
    6103 TIP3 1954 TIP3 H1   HT            0.417         1.008       0
    6104 TIP3 1954 TIP3 H2   HT            0.417         1.008       0
    6105 TIP3 1955 TIP3 OH2  OT           -0.834       15.9994       0
    6106 TIP3 1955 TIP3 H1   HT            0.417         1.008       0
    6107 TIP3 1955 TIP3 H2   HT            0.417         1.008       0
    6108 TIP3 1956 TIP3 OH2  OT           -0.834       15.9994       0
    6109 TIP3 1956 TIP3 H1   HT            0.417         1.008       0
    6110 TIP3 1956 TIP3 H2   HT            0.417         1.008       0
    6111 TIP3 1957 TIP3 OH2  OT           -0.834       15.9994       0
    6112 TIP3 1957 TIP3 H1   HT            0.417         1.008       0
    6113 TIP3 1957 TIP3 H2   HT            0.417         1.008       0
    6114 TIP3 1958 TIP3 OH2  OT           -0.834       15.9994       0
    6115 TIP3 1958 TIP3 H1   HT            0.417         1.008       0
    6116 TIP3 1958 TIP3 H2   HT            0.417         1.008       0
    6117 TIP3 1959 TIP3 OH2  OT           -0.834       15.9994       0
    6118 TIP3 1959 TIP3 H1   HT            0.417         1.008       0
    6119 TIP3 1959 TIP3 H2   HT            0.417         1.008       0
    6120 TIP3 1960 TIP3 OH2  OT           -0.834       15.9994       0
    6121 TIP3 1960 TIP3 H1   HT            0.417         1.008       0
    6122 TIP3 1960 TIP3 H2   HT            0.417         1.008       0
    6123 TIP3 1961 TIP3 OH2  OT           -0.834       15.9994       0
    6124 TIP3 1961 TIP3 H1   HT            0.417         1.008       0
    6125 TIP3 1961 TIP3 H2   HT            0.417         1.008       0
    6126 TIP3 1962 TIP3 OH2  OT           -0.834       15.9994       0
    6127 TIP3 1962 TIP3 H1   HT            0.417         1.008       0
    6128 TIP3 1962 TIP3 H2   HT            0.417         1.008       0
    6129 TIP3 1963 TIP3 OH2  OT           -0.834       15.9994       0
    6130 TIP3 1963 TIP3 H1   HT            0.417         1.008       0
    6131 TIP3 1963 TIP3 H2   HT            0.417         1.008       0
    6132 TIP3 1964 TIP3 OH2  OT           -0.834       15.9994       0
    6133 TIP3 1964 TIP3 H1   HT            0.417         1.008       0
    6134 TIP3 1964 TIP3 H2   HT            0.417         1.008       0
    6135 TIP3 1965 TIP3 OH2  OT           -0.834       15.9994       0
    6136 TIP3 1965 TIP3 H1   HT            0.417         1.008       0
    6137 TIP3 1965 TIP3 H2   HT            0.417         1.008       0
    6138 TIP3 1966 TIP3 OH2  OT           -0.834       15.9994       0
    6139 TIP3 1966 TIP3 H1   HT            0.417         1.008       0
    6140 TIP3 1966 TIP3 H2   HT            0.417         1.008       0
    6141 TIP3 1967 TIP3 OH2  OT           -0.834       15.9994       0
    6142 TIP3 1967 TIP3 H1   HT            0.417         1.008       0
    6143 TIP3 1967 TIP3 H2   HT            0.417         1.008       0
    6144 TIP3 1968 TIP3 OH2  OT           -0.834       15.9994       0
    6145 TIP3 1968 TIP3 H1   HT            0.417         1.008       0
    6146 TIP3 1968 TIP3 H2   HT            0.417         1.008       0
    6147 TIP3 1969 TIP3 OH2  OT           -0.834       15.9994       0
    6148 TIP3 1969 TIP3 H1   HT            0.417         1.008       0
    6149 TIP3 1969 TIP3 H2   HT            0.417         1.008       0
    6150 TIP3 1970 TIP3 OH2  OT           -0.834       15.9994       0
    6151 TIP3 1970 TIP3 H1   HT            0.417         1.008       0
    6152 TIP3 1970 TIP3 H2   HT            0.417         1.008       0
    6153 TIP3 1971 TIP3 OH2  OT           -0.834       15.9994       0
    6154 TIP3 1971 TIP3 H1   HT            0.417         1.008       0
    6155 TIP3 1971 TIP3 H2   HT            0.417         1.008       0
    6156 TIP3 1972 TIP3 OH2  OT           -0.834       15.9994       0
    6157 TIP3 1972 TIP3 H1   HT            0.417         1.008       0
    6158 TIP3 1972 TIP3 H2   HT            0.417         1.008       0
    6159 TIP3 1973 TIP3 OH2  OT           -0.834       15.9994       0
    6160 TIP3 1973 TIP3 H1   HT            0.417         1.008       0
    6161 TIP3 1973 TIP3 H2   HT            0.417         1.008       0
    6162 TIP3 1974 TIP3 OH2  OT           -0.834       15.9994       0
    6163 TIP3 1974 TIP3 H1   HT            0.417         1.008       0
    6164 TIP3 1974 TIP3 H2   HT            0.417         1.008       0
    6165 TIP3 1975 TIP3 OH2  OT           -0.834       15.9994       0
    6166 TIP3 1975 TIP3 H1   HT            0.417         1.008       0
    6167 TIP3 1975 TIP3 H2   HT            0.417         1.008       0
    6168 TIP3 1976 TIP3 OH2  OT           -0.834       15.9994       0
    6169 TIP3 1976 TIP3 H1   HT            0.417         1.008       0
    6170 TIP3 1976 TIP3 H2   HT            0.417         1.008       0
    6171 TIP3 1977 TIP3 OH2  OT           -0.834       15.9994       0
    6172 TIP3 1977 TIP3 H1   HT            0.417         1.008       0
    6173 TIP3 1977 TIP3 H2   HT            0.417         1.008       0
    6174 TIP3 1978 TIP3 OH2  OT           -0.834       15.9994       0
    6175 TIP3 1978 TIP3 H1   HT            0.417         1.008       0
    6176 TIP3 1978 TIP3 H2   HT            0.417         1.008       0
    6177 TIP3 1979 TIP3 OH2  OT           -0.834       15.9994       0
    6178 TIP3 1979 TIP3 H1   HT            0.417         1.008       0
    6179 TIP3 1979 TIP3 H2   HT            0.417         1.008       0
    6180 TIP3 1980 TIP3 OH2  OT           -0.834       15.9994       0
    6181 TIP3 1980 TIP3 H1   HT            0.417         1.008       0
    6182 TIP3 1980 TIP3 H2   HT            0.417         1.008       0
    6183 TIP3 1981 TIP3 OH2  OT           -0.834       15.9994       0
    6184 TIP3 1981 TIP3 H1   HT            0.417         1.008       0
    6185 TIP3 1981 TIP3 H2   HT            0.417         1.008       0
    6186 TIP3 1982 TIP3 OH2  OT           -0.834       15.9994       0
    6187 TIP3 1982 TIP3 H1   HT            0.417         1.008       0
    6188 TIP3 1982 TIP3 H2   HT            0.417         1.008       0
    6189 TIP3 1983 TIP3 OH2  OT           -0.834       15.9994       0
    6190 TIP3 1983 TIP3 H1   HT            0.417         1.008       0
    6191 TIP3 1983 TIP3 H2   HT            0.417         1.008       0
    6192 TIP3 1984 TIP3 OH2  OT           -0.834       15.9994       0
    6193 TIP3 1984 TIP3 H1   HT            0.417         1.008       0
    6194 TIP3 1984 TIP3 H2   HT            0.417         1.008       0
    6195 TIP3 1985 TIP3 OH2  OT           -0.834       15.9994       0
    6196 TIP3 1985 TIP3 H1   HT            0.417         1.008       0
    6197 TIP3 1985 TIP3 H2   HT            0.417         1.008       0
    6198 TIP3 1986 TIP3 OH2  OT           -0.834       15.9994       0
    6199 TIP3 1986 TIP3 H1   HT            0.417         1.008       0
    6200 TIP3 1986 TIP3 H2   HT            0.417         1.008       0
    6201 TIP3 1987 TIP3 OH2  OT           -0.834       15.9994       0
    6202 TIP3 1987 TIP3 H1   HT            0.417         1.008       0
    6203 TIP3 1987 TIP3 H2   HT            0.417         1.008       0
    6204 TIP3 1988 TIP3 OH2  OT           -0.834       15.9994       0
    6205 TIP3 1988 TIP3 H1   HT            0.417         1.008       0
    6206 TIP3 1988 TIP3 H2   HT            0.417         1.008       0
    6207 TIP3 1989 TIP3 OH2  OT           -0.834       15.9994       0
    6208 TIP3 1989 TIP3 H1   HT            0.417         1.008       0
    6209 TIP3 1989 TIP3 H2   HT            0.417         1.008       0
    6210 TIP3 1990 TIP3 OH2  OT           -0.834       15.9994       0
    6211 TIP3 1990 TIP3 H1   HT            0.417         1.008       0
    6212 TIP3 1990 TIP3 H2   HT            0.417         1.008       0
    6213 TIP3 1991 TIP3 OH2  OT           -0.834       15.9994       0
    6214 TIP3 1991 TIP3 H1   HT            0.417         1.008       0
    6215 TIP3 1991 TIP3 H2   HT            0.417         1.008       0
    6216 TIP3 1992 TIP3 OH2  OT           -0.834       15.9994       0
    6217 TIP3 1992 TIP3 H1   HT            0.417         1.008       0
    6218 TIP3 1992 TIP3 H2   HT            0.417         1.008       0
    6219 TIP3 1993 TIP3 OH2  OT           -0.834       15.9994       0
    6220 TIP3 1993 TIP3 H1   HT            0.417         1.008       0
    6221 TIP3 1993 TIP3 H2   HT            0.417         1.008       0
    6222 TIP3 1994 TIP3 OH2  OT           -0.834       15.9994       0
    6223 TIP3 1994 TIP3 H1   HT            0.417         1.008       0
    6224 TIP3 1994 TIP3 H2   HT            0.417         1.008       0
    6225 TIP3 1995 TIP3 OH2  OT           -0.834       15.9994       0
    6226 TIP3 1995 TIP3 H1   HT            0.417         1.008       0
    6227 TIP3 1995 TIP3 H2   HT            0.417         1.008       0
    6228 TIP3 1996 TIP3 OH2  OT           -0.834       15.9994       0
    6229 TIP3 1996 TIP3 H1   HT            0.417         1.008       0
    6230 TIP3 1996 TIP3 H2   HT            0.417         1.008       0
    6231 TIP3 1997 TIP3 OH2  OT           -0.834       15.9994       0
    6232 TIP3 1997 TIP3 H1   HT            0.417         1.008       0
    6233 TIP3 1997 TIP3 H2   HT            0.417         1.008       0
    6234 TIP3 1998 TIP3 OH2  OT           -0.834       15.9994       0
    6235 TIP3 1998 TIP3 H1   HT            0.417         1.008       0
    6236 TIP3 1998 TIP3 H2   HT            0.417         1.008       0
    6237 TIP3 1999 TIP3 OH2  OT           -0.834       15.9994       0
    6238 TIP3 1999 TIP3 H1   HT            0.417         1.008       0
    6239 TIP3 1999 TIP3 H2   HT            0.417         1.008       0
    6240 TIP3 2000 TIP3 OH2  OT           -0.834       15.9994       0
    6241 TIP3 2000 TIP3 H1   HT            0.417         1.008       0
    6242 TIP3 2000 TIP3 H2   HT            0.417         1.008       0
    6243 TIP3 2001 TIP3 OH2  OT           -0.834       15.9994       0
    6244 TIP3 2001 TIP3 H1   HT            0.417         1.008       0
    6245 TIP3 2001 TIP3 H2   HT            0.417         1.008       0
    6246 TIP3 2002 TIP3 OH2  OT           -0.834       15.9994       0
    6247 TIP3 2002 TIP3 H1   HT            0.417         1.008       0
    6248 TIP3 2002 TIP3 H2   HT            0.417         1.008       0
    6249 TIP3 2003 TIP3 OH2  OT           -0.834       15.9994       0
    6250 TIP3 2003 TIP3 H1   HT            0.417         1.008       0
    6251 TIP3 2003 TIP3 H2   HT            0.417         1.008       0
    6252 TIP3 2004 TIP3 OH2  OT           -0.834       15.9994       0
    6253 TIP3 2004 TIP3 H1   HT            0.417         1.008       0
    6254 TIP3 2004 TIP3 H2   HT            0.417         1.008       0
    6255 TIP3 2005 TIP3 OH2  OT           -0.834       15.9994       0
    6256 TIP3 2005 TIP3 H1   HT            0.417         1.008       0
    6257 TIP3 2005 TIP3 H2   HT            0.417         1.008       0
    6258 TIP3 2006 TIP3 OH2  OT           -0.834       15.9994       0
    6259 TIP3 2006 TIP3 H1   HT            0.417         1.008       0
    6260 TIP3 2006 TIP3 H2   HT            0.417         1.008       0
    6261 TIP3 2007 TIP3 OH2  OT           -0.834       15.9994       0
    6262 TIP3 2007 TIP3 H1   HT            0.417         1.008       0
    6263 TIP3 2007 TIP3 H2   HT            0.417         1.008       0
    6264 TIP3 2008 TIP3 OH2  OT           -0.834       15.9994       0
    6265 TIP3 2008 TIP3 H1   HT            0.417         1.008       0
    6266 TIP3 2008 TIP3 H2   HT            0.417         1.008       0
    6267 TIP3 2009 TIP3 OH2  OT           -0.834       15.9994       0
    6268 TIP3 2009 TIP3 H1   HT            0.417         1.008       0
    6269 TIP3 2009 TIP3 H2   HT            0.417         1.008       0
    6270 TIP3 2010 TIP3 OH2  OT           -0.834       15.9994       0
    6271 TIP3 2010 TIP3 H1   HT            0.417         1.008       0
    6272 TIP3 2010 TIP3 H2   HT            0.417         1.008       0
    6273 TIP3 2011 TIP3 OH2  OT           -0.834       15.9994       0
    6274 TIP3 2011 TIP3 H1   HT            0.417         1.008       0
    6275 TIP3 2011 TIP3 H2   HT            0.417         1.008       0
    6276 TIP3 2012 TIP3 OH2  OT           -0.834       15.9994       0
    6277 TIP3 2012 TIP3 H1   HT            0.417         1.008       0
    6278 TIP3 2012 TIP3 H2   HT            0.417         1.008       0
    6279 TIP3 2013 TIP3 OH2  OT           -0.834       15.9994       0
    6280 TIP3 2013 TIP3 H1   HT            0.417         1.008       0
    6281 TIP3 2013 TIP3 H2   HT            0.417         1.008       0
    6282 TIP3 2014 TIP3 OH2  OT           -0.834       15.9994       0
    6283 TIP3 2014 TIP3 H1   HT            0.417         1.008       0
    6284 TIP3 2014 TIP3 H2   HT            0.417         1.008       0
    6285 TIP3 2015 TIP3 OH2  OT           -0.834       15.9994       0
    6286 TIP3 2015 TIP3 H1   HT            0.417         1.008       0
    6287 TIP3 2015 TIP3 H2   HT            0.417         1.008       0
    6288 TIP3 2016 TIP3 OH2  OT           -0.834       15.9994       0
    6289 TIP3 2016 TIP3 H1   HT            0.417         1.008       0
    6290 TIP3 2016 TIP3 H2   HT            0.417         1.008       0
    6291 TIP3 2017 TIP3 OH2  OT           -0.834       15.9994       0
    6292 TIP3 2017 TIP3 H1   HT            0.417         1.008       0
    6293 TIP3 2017 TIP3 H2   HT            0.417         1.008       0
    6294 TIP3 2018 TIP3 OH2  OT           -0.834       15.9994       0
    6295 TIP3 2018 TIP3 H1   HT            0.417         1.008       0
    6296 TIP3 2018 TIP3 H2   HT            0.417         1.008       0
    6297 TIP3 2019 TIP3 OH2  OT           -0.834       15.9994       0
    6298 TIP3 2019 TIP3 H1   HT            0.417         1.008       0
    6299 TIP3 2019 TIP3 H2   HT            0.417         1.008       0
    6300 TIP3 2020 TIP3 OH2  OT           -0.834       15.9994       0
    6301 TIP3 2020 TIP3 H1   HT            0.417         1.008       0
    6302 TIP3 2020 TIP3 H2   HT            0.417         1.008       0
    6303 TIP3 2021 TIP3 OH2  OT           -0.834       15.9994       0
    6304 TIP3 2021 TIP3 H1   HT            0.417         1.008       0
    6305 TIP3 2021 TIP3 H2   HT            0.417         1.008       0
    6306 TIP3 2022 TIP3 OH2  OT           -0.834       15.9994       0
    6307 TIP3 2022 TIP3 H1   HT            0.417         1.008       0
    6308 TIP3 2022 TIP3 H2   HT            0.417         1.008       0
    6309 TIP3 2023 TIP3 OH2  OT           -0.834       15.9994       0
    6310 TIP3 2023 TIP3 H1   HT            0.417         1.008       0
    6311 TIP3 2023 TIP3 H2   HT            0.417         1.008       0
    6312 TIP3 2024 TIP3 OH2  OT           -0.834       15.9994       0
    6313 TIP3 2024 TIP3 H1   HT            0.417         1.008       0
    6314 TIP3 2024 TIP3 H2   HT            0.417         1.008       0
    6315 TIP3 2025 TIP3 OH2  OT           -0.834       15.9994       0
    6316 TIP3 2025 TIP3 H1   HT            0.417         1.008       0
    6317 TIP3 2025 TIP3 H2   HT            0.417         1.008       0
    6318 TIP3 2026 TIP3 OH2  OT           -0.834       15.9994       0
    6319 TIP3 2026 TIP3 H1   HT            0.417         1.008       0
    6320 TIP3 2026 TIP3 H2   HT            0.417         1.008       0
    6321 TIP3 2027 TIP3 OH2  OT           -0.834       15.9994       0
    6322 TIP3 2027 TIP3 H1   HT            0.417         1.008       0
    6323 TIP3 2027 TIP3 H2   HT            0.417         1.008       0
    6324 TIP3 2028 TIP3 OH2  OT           -0.834       15.9994       0
    6325 TIP3 2028 TIP3 H1   HT            0.417         1.008       0
    6326 TIP3 2028 TIP3 H2   HT            0.417         1.008       0
    6327 TIP3 2029 TIP3 OH2  OT           -0.834       15.9994       0
    6328 TIP3 2029 TIP3 H1   HT            0.417         1.008       0
    6329 TIP3 2029 TIP3 H2   HT            0.417         1.008       0
    6330 TIP3 2030 TIP3 OH2  OT           -0.834       15.9994       0
    6331 TIP3 2030 TIP3 H1   HT            0.417         1.008       0
    6332 TIP3 2030 TIP3 H2   HT            0.417         1.008       0
    6333 TIP3 2031 TIP3 OH2  OT           -0.834       15.9994       0
    6334 TIP3 2031 TIP3 H1   HT            0.417         1.008       0
    6335 TIP3 2031 TIP3 H2   HT            0.417         1.008       0
    6336 TIP3 2032 TIP3 OH2  OT           -0.834       15.9994       0
    6337 TIP3 2032 TIP3 H1   HT            0.417         1.008       0
    6338 TIP3 2032 TIP3 H2   HT            0.417         1.008       0
    6339 TIP3 2033 TIP3 OH2  OT           -0.834       15.9994       0
    6340 TIP3 2033 TIP3 H1   HT            0.417         1.008       0
    6341 TIP3 2033 TIP3 H2   HT            0.417         1.008       0
    6342 TIP3 2034 TIP3 OH2  OT           -0.834       15.9994       0
    6343 TIP3 2034 TIP3 H1   HT            0.417         1.008       0
    6344 TIP3 2034 TIP3 H2   HT            0.417         1.008       0
    6345 TIP3 2035 TIP3 OH2  OT           -0.834       15.9994       0
    6346 TIP3 2035 TIP3 H1   HT            0.417         1.008       0
    6347 TIP3 2035 TIP3 H2   HT            0.417         1.008       0
    6348 TIP3 2036 TIP3 OH2  OT           -0.834       15.9994       0
    6349 TIP3 2036 TIP3 H1   HT            0.417         1.008       0
    6350 TIP3 2036 TIP3 H2   HT            0.417         1.008       0
    6351 TIP3 2037 TIP3 OH2  OT           -0.834       15.9994       0
    6352 TIP3 2037 TIP3 H1   HT            0.417         1.008       0
    6353 TIP3 2037 TIP3 H2   HT            0.417         1.008       0
    6354 TIP3 2038 TIP3 OH2  OT           -0.834       15.9994       0
    6355 TIP3 2038 TIP3 H1   HT            0.417         1.008       0
    6356 TIP3 2038 TIP3 H2   HT            0.417         1.008       0
    6357 TIP3 2039 TIP3 OH2  OT           -0.834       15.9994       0
    6358 TIP3 2039 TIP3 H1   HT            0.417         1.008       0
    6359 TIP3 2039 TIP3 H2   HT            0.417         1.008       0
    6360 TIP3 2040 TIP3 OH2  OT           -0.834       15.9994       0
    6361 TIP3 2040 TIP3 H1   HT            0.417         1.008       0
    6362 TIP3 2040 TIP3 H2   HT            0.417         1.008       0
    6363 TIP3 2041 TIP3 OH2  OT           -0.834       15.9994       0
    6364 TIP3 2041 TIP3 H1   HT            0.417         1.008       0
    6365 TIP3 2041 TIP3 H2   HT            0.417         1.008       0
    6366 TIP3 2042 TIP3 OH2  OT           -0.834       15.9994       0
    6367 TIP3 2042 TIP3 H1   HT            0.417         1.008       0
    6368 TIP3 2042 TIP3 H2   HT            0.417         1.008       0
    6369 TIP3 2043 TIP3 OH2  OT           -0.834       15.9994       0
    6370 TIP3 2043 TIP3 H1   HT            0.417         1.008       0
    6371 TIP3 2043 TIP3 H2   HT            0.417         1.008       0
    6372 TIP3 2044 TIP3 OH2  OT           -0.834       15.9994       0
    6373 TIP3 2044 TIP3 H1   HT            0.417         1.008       0
    6374 TIP3 2044 TIP3 H2   HT            0.417         1.008       0
    6375 TIP3 2045 TIP3 OH2  OT           -0.834       15.9994       0
    6376 TIP3 2045 TIP3 H1   HT            0.417         1.008       0
    6377 TIP3 2045 TIP3 H2   HT            0.417         1.008       0
    6378 TIP3 2046 TIP3 OH2  OT           -0.834       15.9994       0
    6379 TIP3 2046 TIP3 H1   HT            0.417         1.008       0
    6380 TIP3 2046 TIP3 H2   HT            0.417         1.008       0
    6381 TIP3 2047 TIP3 OH2  OT           -0.834       15.9994       0
    6382 TIP3 2047 TIP3 H1   HT            0.417         1.008       0
    6383 TIP3 2047 TIP3 H2   HT            0.417         1.008       0
    6384 TIP3 2048 TIP3 OH2  OT           -0.834       15.9994       0
    6385 TIP3 2048 TIP3 H1   HT            0.417         1.008       0
    6386 TIP3 2048 TIP3 H2   HT            0.417         1.008       0
    6387 TIP3 2049 TIP3 OH2  OT           -0.834       15.9994       0
    6388 TIP3 2049 TIP3 H1   HT            0.417         1.008       0
    6389 TIP3 2049 TIP3 H2   HT            0.417         1.008       0
    6390 TIP3 2050 TIP3 OH2  OT           -0.834       15.9994       0
    6391 TIP3 2050 TIP3 H1   HT            0.417         1.008       0
    6392 TIP3 2050 TIP3 H2   HT            0.417         1.008       0
    6393 TIP3 2051 TIP3 OH2  OT           -0.834       15.9994       0
    6394 TIP3 2051 TIP3 H1   HT            0.417         1.008       0
    6395 TIP3 2051 TIP3 H2   HT            0.417         1.008       0
    6396 TIP3 2052 TIP3 OH2  OT           -0.834       15.9994       0
    6397 TIP3 2052 TIP3 H1   HT            0.417         1.008       0
    6398 TIP3 2052 TIP3 H2   HT            0.417         1.008       0
    6399 TIP3 2053 TIP3 OH2  OT           -0.834       15.9994       0
    6400 TIP3 2053 TIP3 H1   HT            0.417         1.008       0
    6401 TIP3 2053 TIP3 H2   HT            0.417         1.008       0
    6402 TIP3 2054 TIP3 OH2  OT           -0.834       15.9994       0
    6403 TIP3 2054 TIP3 H1   HT            0.417         1.008       0
    6404 TIP3 2054 TIP3 H2   HT            0.417         1.008       0
    6405 TIP3 2055 TIP3 OH2  OT           -0.834       15.9994       0
    6406 TIP3 2055 TIP3 H1   HT            0.417         1.008       0
    6407 TIP3 2055 TIP3 H2   HT            0.417         1.008       0
    6408 TIP3 2056 TIP3 OH2  OT           -0.834       15.9994       0
    6409 TIP3 2056 TIP3 H1   HT            0.417         1.008       0
    6410 TIP3 2056 TIP3 H2   HT            0.417         1.008       0
    6411 TIP3 2057 TIP3 OH2  OT           -0.834       15.9994       0
    6412 TIP3 2057 TIP3 H1   HT            0.417         1.008       0
    6413 TIP3 2057 TIP3 H2   HT            0.417         1.008       0
    6414 TIP3 2058 TIP3 OH2  OT           -0.834       15.9994       0
    6415 TIP3 2058 TIP3 H1   HT            0.417         1.008       0
    6416 TIP3 2058 TIP3 H2   HT            0.417         1.008       0
    6417 TIP3 2059 TIP3 OH2  OT           -0.834       15.9994       0
    6418 TIP3 2059 TIP3 H1   HT            0.417         1.008       0
    6419 TIP3 2059 TIP3 H2   HT            0.417         1.008       0
    6420 TIP3 2060 TIP3 OH2  OT           -0.834       15.9994       0
    6421 TIP3 2060 TIP3 H1   HT            0.417         1.008       0
    6422 TIP3 2060 TIP3 H2   HT            0.417         1.008       0
    6423 TIP3 2061 TIP3 OH2  OT           -0.834       15.9994       0
    6424 TIP3 2061 TIP3 H1   HT            0.417         1.008       0
    6425 TIP3 2061 TIP3 H2   HT            0.417         1.008       0
    6426 TIP3 2062 TIP3 OH2  OT           -0.834       15.9994       0
    6427 TIP3 2062 TIP3 H1   HT            0.417         1.008       0
    6428 TIP3 2062 TIP3 H2   HT            0.417         1.008       0
    6429 TIP3 2063 TIP3 OH2  OT           -0.834       15.9994       0
    6430 TIP3 2063 TIP3 H1   HT            0.417         1.008       0
    6431 TIP3 2063 TIP3 H2   HT            0.417         1.008       0
    6432 TIP3 2064 TIP3 OH2  OT           -0.834       15.9994       0
    6433 TIP3 2064 TIP3 H1   HT            0.417         1.008       0
    6434 TIP3 2064 TIP3 H2   HT            0.417         1.008       0
    6435 TIP3 2065 TIP3 OH2  OT           -0.834       15.9994       0
    6436 TIP3 2065 TIP3 H1   HT            0.417         1.008       0
    6437 TIP3 2065 TIP3 H2   HT            0.417         1.008       0
    6438 TIP3 2066 TIP3 OH2  OT           -0.834       15.9994       0
    6439 TIP3 2066 TIP3 H1   HT            0.417         1.008       0
    6440 TIP3 2066 TIP3 H2   HT            0.417         1.008       0
    6441 TIP3 2067 TIP3 OH2  OT           -0.834       15.9994       0
    6442 TIP3 2067 TIP3 H1   HT            0.417         1.008       0
    6443 TIP3 2067 TIP3 H2   HT            0.417         1.008       0
    6444 TIP3 2068 TIP3 OH2  OT           -0.834       15.9994       0
    6445 TIP3 2068 TIP3 H1   HT            0.417         1.008       0
    6446 TIP3 2068 TIP3 H2   HT            0.417         1.008       0
    6447 TIP3 2069 TIP3 OH2  OT           -0.834       15.9994       0
    6448 TIP3 2069 TIP3 H1   HT            0.417         1.008       0
    6449 TIP3 2069 TIP3 H2   HT            0.417         1.008       0
    6450 TIP3 2070 TIP3 OH2  OT           -0.834       15.9994       0
    6451 TIP3 2070 TIP3 H1   HT            0.417         1.008       0
    6452 TIP3 2070 TIP3 H2   HT            0.417         1.008       0
    6453 TIP3 2071 TIP3 OH2  OT           -0.834       15.9994       0
    6454 TIP3 2071 TIP3 H1   HT            0.417         1.008       0
    6455 TIP3 2071 TIP3 H2   HT            0.417         1.008       0
    6456 TIP3 2072 TIP3 OH2  OT           -0.834       15.9994       0
    6457 TIP3 2072 TIP3 H1   HT            0.417         1.008       0
    6458 TIP3 2072 TIP3 H2   HT            0.417         1.008       0
    6459 TIP3 2073 TIP3 OH2  OT           -0.834       15.9994       0
    6460 TIP3 2073 TIP3 H1   HT            0.417         1.008       0
    6461 TIP3 2073 TIP3 H2   HT            0.417         1.008       0
    6462 TIP3 2074 TIP3 OH2  OT           -0.834       15.9994       0
    6463 TIP3 2074 TIP3 H1   HT            0.417         1.008       0
    6464 TIP3 2074 TIP3 H2   HT            0.417         1.008       0
    6465 TIP3 2075 TIP3 OH2  OT           -0.834       15.9994       0
    6466 TIP3 2075 TIP3 H1   HT            0.417         1.008       0
    6467 TIP3 2075 TIP3 H2   HT            0.417         1.008       0
    6468 TIP3 2076 TIP3 OH2  OT           -0.834       15.9994       0
    6469 TIP3 2076 TIP3 H1   HT            0.417         1.008       0
    6470 TIP3 2076 TIP3 H2   HT            0.417         1.008       0
    6471 TIP3 2077 TIP3 OH2  OT           -0.834       15.9994       0
    6472 TIP3 2077 TIP3 H1   HT            0.417         1.008       0
    6473 TIP3 2077 TIP3 H2   HT            0.417         1.008       0
    6474 TIP3 2078 TIP3 OH2  OT           -0.834       15.9994       0
    6475 TIP3 2078 TIP3 H1   HT            0.417         1.008       0
    6476 TIP3 2078 TIP3 H2   HT            0.417         1.008       0
    6477 TIP3 2079 TIP3 OH2  OT           -0.834       15.9994       0
    6478 TIP3 2079 TIP3 H1   HT            0.417         1.008       0
    6479 TIP3 2079 TIP3 H2   HT            0.417         1.008       0
    6480 TIP3 2080 TIP3 OH2  OT           -0.834       15.9994       0
    6481 TIP3 2080 TIP3 H1   HT            0.417         1.008       0
    6482 TIP3 2080 TIP3 H2   HT            0.417         1.008       0
    6483 TIP3 2081 TIP3 OH2  OT           -0.834       15.9994       0
    6484 TIP3 2081 TIP3 H1   HT            0.417         1.008       0
    6485 TIP3 2081 TIP3 H2   HT            0.417         1.008       0
    6486 TIP3 2082 TIP3 OH2  OT           -0.834       15.9994       0
    6487 TIP3 2082 TIP3 H1   HT            0.417         1.008       0
    6488 TIP3 2082 TIP3 H2   HT            0.417         1.008       0
    6489 TIP3 2083 TIP3 OH2  OT           -0.834       15.9994       0
    6490 TIP3 2083 TIP3 H1   HT            0.417         1.008       0
    6491 TIP3 2083 TIP3 H2   HT            0.417         1.008       0
    6492 TIP3 2084 TIP3 OH2  OT           -0.834       15.9994       0
    6493 TIP3 2084 TIP3 H1   HT            0.417         1.008       0
    6494 TIP3 2084 TIP3 H2   HT            0.417         1.008       0
    6495 TIP3 2085 TIP3 OH2  OT           -0.834       15.9994       0
    6496 TIP3 2085 TIP3 H1   HT            0.417         1.008       0
    6497 TIP3 2085 TIP3 H2   HT            0.417         1.008       0
    6498 TIP3 2086 TIP3 OH2  OT           -0.834       15.9994       0
    6499 TIP3 2086 TIP3 H1   HT            0.417         1.008       0
    6500 TIP3 2086 TIP3 H2   HT            0.417         1.008       0
    6501 TIP3 2087 TIP3 OH2  OT           -0.834       15.9994       0
    6502 TIP3 2087 TIP3 H1   HT            0.417         1.008       0
    6503 TIP3 2087 TIP3 H2   HT            0.417         1.008       0
    6504 TIP3 2088 TIP3 OH2  OT           -0.834       15.9994       0
    6505 TIP3 2088 TIP3 H1   HT            0.417         1.008       0
    6506 TIP3 2088 TIP3 H2   HT            0.417         1.008       0
    6507 TIP3 2089 TIP3 OH2  OT           -0.834       15.9994       0
    6508 TIP3 2089 TIP3 H1   HT            0.417         1.008       0
    6509 TIP3 2089 TIP3 H2   HT            0.417         1.008       0
    6510 TIP3 2090 TIP3 OH2  OT           -0.834       15.9994       0
    6511 TIP3 2090 TIP3 H1   HT            0.417         1.008       0
    6512 TIP3 2090 TIP3 H2   HT            0.417         1.008       0
    6513 TIP3 2091 TIP3 OH2  OT           -0.834       15.9994       0
    6514 TIP3 2091 TIP3 H1   HT            0.417         1.008       0
    6515 TIP3 2091 TIP3 H2   HT            0.417         1.008       0
    6516 TIP3 2092 TIP3 OH2  OT           -0.834       15.9994       0
    6517 TIP3 2092 TIP3 H1   HT            0.417         1.008       0
    6518 TIP3 2092 TIP3 H2   HT            0.417         1.008       0
    6519 TIP3 2093 TIP3 OH2  OT           -0.834       15.9994       0
    6520 TIP3 2093 TIP3 H1   HT            0.417         1.008       0
    6521 TIP3 2093 TIP3 H2   HT            0.417         1.008       0
    6522 TIP3 2094 TIP3 OH2  OT           -0.834       15.9994       0
    6523 TIP3 2094 TIP3 H1   HT            0.417         1.008       0
    6524 TIP3 2094 TIP3 H2   HT            0.417         1.008       0
    6525 TIP3 2095 TIP3 OH2  OT           -0.834       15.9994       0
    6526 TIP3 2095 TIP3 H1   HT            0.417         1.008       0
    6527 TIP3 2095 TIP3 H2   HT            0.417         1.008       0
    6528 TIP3 2096 TIP3 OH2  OT           -0.834       15.9994       0
    6529 TIP3 2096 TIP3 H1   HT            0.417         1.008       0
    6530 TIP3 2096 TIP3 H2   HT            0.417         1.008       0
    6531 TIP3 2097 TIP3 OH2  OT           -0.834       15.9994       0
    6532 TIP3 2097 TIP3 H1   HT            0.417         1.008       0
    6533 TIP3 2097 TIP3 H2   HT            0.417         1.008       0
    6534 TIP3 2098 TIP3 OH2  OT           -0.834       15.9994       0
    6535 TIP3 2098 TIP3 H1   HT            0.417         1.008       0
    6536 TIP3 2098 TIP3 H2   HT            0.417         1.008       0
    6537 TIP3 2099 TIP3 OH2  OT           -0.834       15.9994       0
    6538 TIP3 2099 TIP3 H1   HT            0.417         1.008       0
    6539 TIP3 2099 TIP3 H2   HT            0.417         1.008       0
    6540 TIP3 2100 TIP3 OH2  OT           -0.834       15.9994       0
    6541 TIP3 2100 TIP3 H1   HT            0.417         1.008       0
    6542 TIP3 2100 TIP3 H2   HT            0.417         1.008       0
    6543 TIP3 2101 TIP3 OH2  OT           -0.834       15.9994       0
    6544 TIP3 2101 TIP3 H1   HT            0.417         1.008       0
    6545 TIP3 2101 TIP3 H2   HT            0.417         1.008       0
    6546 TIP3 2102 TIP3 OH2  OT           -0.834       15.9994       0
    6547 TIP3 2102 TIP3 H1   HT            0.417         1.008       0
    6548 TIP3 2102 TIP3 H2   HT            0.417         1.008       0
    6549 TIP3 2103 TIP3 OH2  OT           -0.834       15.9994       0
    6550 TIP3 2103 TIP3 H1   HT            0.417         1.008       0
    6551 TIP3 2103 TIP3 H2   HT            0.417         1.008       0
    6552 TIP3 2104 TIP3 OH2  OT           -0.834       15.9994       0
    6553 TIP3 2104 TIP3 H1   HT            0.417         1.008       0
    6554 TIP3 2104 TIP3 H2   HT            0.417         1.008       0
    6555 TIP3 2105 TIP3 OH2  OT           -0.834       15.9994       0
    6556 TIP3 2105 TIP3 H1   HT            0.417         1.008       0
    6557 TIP3 2105 TIP3 H2   HT            0.417         1.008       0
    6558 TIP3 2106 TIP3 OH2  OT           -0.834       15.9994       0
    6559 TIP3 2106 TIP3 H1   HT            0.417         1.008       0
    6560 TIP3 2106 TIP3 H2   HT            0.417         1.008       0
    6561 TIP3 2107 TIP3 OH2  OT           -0.834       15.9994       0
    6562 TIP3 2107 TIP3 H1   HT            0.417         1.008       0
    6563 TIP3 2107 TIP3 H2   HT            0.417         1.008       0
    6564 TIP3 2108 TIP3 OH2  OT           -0.834       15.9994       0
    6565 TIP3 2108 TIP3 H1   HT            0.417         1.008       0
    6566 TIP3 2108 TIP3 H2   HT            0.417         1.008       0
    6567 TIP3 2109 TIP3 OH2  OT           -0.834       15.9994       0
    6568 TIP3 2109 TIP3 H1   HT            0.417         1.008       0
    6569 TIP3 2109 TIP3 H2   HT            0.417         1.008       0
    6570 TIP3 2110 TIP3 OH2  OT           -0.834       15.9994       0
    6571 TIP3 2110 TIP3 H1   HT            0.417         1.008       0
    6572 TIP3 2110 TIP3 H2   HT            0.417         1.008       0
    6573 TIP3 2111 TIP3 OH2  OT           -0.834       15.9994       0
    6574 TIP3 2111 TIP3 H1   HT            0.417         1.008       0
    6575 TIP3 2111 TIP3 H2   HT            0.417         1.008       0
    6576 TIP3 2112 TIP3 OH2  OT           -0.834       15.9994       0
    6577 TIP3 2112 TIP3 H1   HT            0.417         1.008       0
    6578 TIP3 2112 TIP3 H2   HT            0.417         1.008       0
    6579 TIP3 2113 TIP3 OH2  OT           -0.834       15.9994       0
    6580 TIP3 2113 TIP3 H1   HT            0.417         1.008       0
    6581 TIP3 2113 TIP3 H2   HT            0.417         1.008       0
    6582 TIP3 2114 TIP3 OH2  OT           -0.834       15.9994       0
    6583 TIP3 2114 TIP3 H1   HT            0.417         1.008       0
    6584 TIP3 2114 TIP3 H2   HT            0.417         1.008       0
    6585 TIP3 2115 TIP3 OH2  OT           -0.834       15.9994       0
    6586 TIP3 2115 TIP3 H1   HT            0.417         1.008       0
    6587 TIP3 2115 TIP3 H2   HT            0.417         1.008       0
    6588 TIP3 2116 TIP3 OH2  OT           -0.834       15.9994       0
    6589 TIP3 2116 TIP3 H1   HT            0.417         1.008       0
    6590 TIP3 2116 TIP3 H2   HT            0.417         1.008       0
    6591 TIP3 2117 TIP3 OH2  OT           -0.834       15.9994       0
    6592 TIP3 2117 TIP3 H1   HT            0.417         1.008       0
    6593 TIP3 2117 TIP3 H2   HT            0.417         1.008       0
    6594 TIP3 2118 TIP3 OH2  OT           -0.834       15.9994       0
    6595 TIP3 2118 TIP3 H1   HT            0.417         1.008       0
    6596 TIP3 2118 TIP3 H2   HT            0.417         1.008       0
    6597 TIP3 2119 TIP3 OH2  OT           -0.834       15.9994       0
    6598 TIP3 2119 TIP3 H1   HT            0.417         1.008       0
    6599 TIP3 2119 TIP3 H2   HT            0.417         1.008       0
    6600 TIP3 2120 TIP3 OH2  OT           -0.834       15.9994       0
    6601 TIP3 2120 TIP3 H1   HT            0.417         1.008       0
    6602 TIP3 2120 TIP3 H2   HT            0.417         1.008       0
    6603 TIP3 2121 TIP3 OH2  OT           -0.834       15.9994       0
    6604 TIP3 2121 TIP3 H1   HT            0.417         1.008       0
    6605 TIP3 2121 TIP3 H2   HT            0.417         1.008       0
    6606 TIP3 2122 TIP3 OH2  OT           -0.834       15.9994       0
    6607 TIP3 2122 TIP3 H1   HT            0.417         1.008       0
    6608 TIP3 2122 TIP3 H2   HT            0.417         1.008       0
    6609 TIP3 2123 TIP3 OH2  OT           -0.834       15.9994       0
    6610 TIP3 2123 TIP3 H1   HT            0.417         1.008       0
    6611 TIP3 2123 TIP3 H2   HT            0.417         1.008       0
    6612 TIP3 2124 TIP3 OH2  OT           -0.834       15.9994       0
    6613 TIP3 2124 TIP3 H1   HT            0.417         1.008       0
    6614 TIP3 2124 TIP3 H2   HT            0.417         1.008       0
    6615 TIP3 2125 TIP3 OH2  OT           -0.834       15.9994       0
    6616 TIP3 2125 TIP3 H1   HT            0.417         1.008       0
    6617 TIP3 2125 TIP3 H2   HT            0.417         1.008       0
    6618 TIP3 2126 TIP3 OH2  OT           -0.834       15.9994       0
    6619 TIP3 2126 TIP3 H1   HT            0.417         1.008       0
    6620 TIP3 2126 TIP3 H2   HT            0.417         1.008       0
    6621 TIP3 2127 TIP3 OH2  OT           -0.834       15.9994       0
    6622 TIP3 2127 TIP3 H1   HT            0.417         1.008       0
    6623 TIP3 2127 TIP3 H2   HT            0.417         1.008       0
    6624 TIP3 2128 TIP3 OH2  OT           -0.834       15.9994       0
    6625 TIP3 2128 TIP3 H1   HT            0.417         1.008       0
    6626 TIP3 2128 TIP3 H2   HT            0.417         1.008       0
    6627 TIP3 2129 TIP3 OH2  OT           -0.834       15.9994       0
    6628 TIP3 2129 TIP3 H1   HT            0.417         1.008       0
    6629 TIP3 2129 TIP3 H2   HT            0.417         1.008       0
    6630 TIP3 2130 TIP3 OH2  OT           -0.834       15.9994       0
    6631 TIP3 2130 TIP3 H1   HT            0.417         1.008       0
    6632 TIP3 2130 TIP3 H2   HT            0.417         1.008       0
    6633 TIP3 2131 TIP3 OH2  OT           -0.834       15.9994       0
    6634 TIP3 2131 TIP3 H1   HT            0.417         1.008       0
    6635 TIP3 2131 TIP3 H2   HT            0.417         1.008       0
    6636 TIP3 2132 TIP3 OH2  OT           -0.834       15.9994       0
    6637 TIP3 2132 TIP3 H1   HT            0.417         1.008       0
    6638 TIP3 2132 TIP3 H2   HT            0.417         1.008       0
    6639 TIP3 2133 TIP3 OH2  OT           -0.834       15.9994       0
    6640 TIP3 2133 TIP3 H1   HT            0.417         1.008       0
    6641 TIP3 2133 TIP3 H2   HT            0.417         1.008       0
    6642 TIP3 2134 TIP3 OH2  OT           -0.834       15.9994       0
    6643 TIP3 2134 TIP3 H1   HT            0.417         1.008       0
    6644 TIP3 2134 TIP3 H2   HT            0.417         1.008       0
    6645 TIP3 2135 TIP3 OH2  OT           -0.834       15.9994       0
    6646 TIP3 2135 TIP3 H1   HT            0.417         1.008       0
    6647 TIP3 2135 TIP3 H2   HT            0.417         1.008       0
    6648 TIP3 2136 TIP3 OH2  OT           -0.834       15.9994       0
    6649 TIP3 2136 TIP3 H1   HT            0.417         1.008       0
    6650 TIP3 2136 TIP3 H2   HT            0.417         1.008       0
    6651 TIP3 2137 TIP3 OH2  OT           -0.834       15.9994       0
    6652 TIP3 2137 TIP3 H1   HT            0.417         1.008       0
    6653 TIP3 2137 TIP3 H2   HT            0.417         1.008       0
    6654 TIP3 2138 TIP3 OH2  OT           -0.834       15.9994       0
    6655 TIP3 2138 TIP3 H1   HT            0.417         1.008       0
    6656 TIP3 2138 TIP3 H2   HT            0.417         1.008       0
    6657 TIP3 2139 TIP3 OH2  OT           -0.834       15.9994       0
    6658 TIP3 2139 TIP3 H1   HT            0.417         1.008       0
    6659 TIP3 2139 TIP3 H2   HT            0.417         1.008       0
    6660 TIP3 2140 TIP3 OH2  OT           -0.834       15.9994       0
    6661 TIP3 2140 TIP3 H1   HT            0.417         1.008       0
    6662 TIP3 2140 TIP3 H2   HT            0.417         1.008       0
    6663 TIP3 2141 TIP3 OH2  OT           -0.834       15.9994       0
    6664 TIP3 2141 TIP3 H1   HT            0.417         1.008       0
    6665 TIP3 2141 TIP3 H2   HT            0.417         1.008       0
    6666 TIP3 2142 TIP3 OH2  OT           -0.834       15.9994       0
    6667 TIP3 2142 TIP3 H1   HT            0.417         1.008       0
    6668 TIP3 2142 TIP3 H2   HT            0.417         1.008       0
    6669 TIP3 2143 TIP3 OH2  OT           -0.834       15.9994       0
    6670 TIP3 2143 TIP3 H1   HT            0.417         1.008       0
    6671 TIP3 2143 TIP3 H2   HT            0.417         1.008       0
    6672 TIP3 2144 TIP3 OH2  OT           -0.834       15.9994       0
    6673 TIP3 2144 TIP3 H1   HT            0.417         1.008       0
    6674 TIP3 2144 TIP3 H2   HT            0.417         1.008       0
    6675 TIP3 2145 TIP3 OH2  OT           -0.834       15.9994       0
    6676 TIP3 2145 TIP3 H1   HT            0.417         1.008       0
    6677 TIP3 2145 TIP3 H2   HT            0.417         1.008       0
    6678 TIP3 2146 TIP3 OH2  OT           -0.834       15.9994       0
    6679 TIP3 2146 TIP3 H1   HT            0.417         1.008       0
    6680 TIP3 2146 TIP3 H2   HT            0.417         1.008       0
    6681 TIP3 2147 TIP3 OH2  OT           -0.834       15.9994       0
    6682 TIP3 2147 TIP3 H1   HT            0.417         1.008       0
    6683 TIP3 2147 TIP3 H2   HT            0.417         1.008       0
    6684 TIP3 2148 TIP3 OH2  OT           -0.834       15.9994       0
    6685 TIP3 2148 TIP3 H1   HT            0.417         1.008       0
    6686 TIP3 2148 TIP3 H2   HT            0.417         1.008       0
    6687 TIP3 2149 TIP3 OH2  OT           -0.834       15.9994       0
    6688 TIP3 2149 TIP3 H1   HT            0.417         1.008       0
    6689 TIP3 2149 TIP3 H2   HT            0.417         1.008       0
    6690 TIP3 2150 TIP3 OH2  OT           -0.834       15.9994       0
    6691 TIP3 2150 TIP3 H1   HT            0.417         1.008       0
    6692 TIP3 2150 TIP3 H2   HT            0.417         1.008       0
    6693 TIP3 2151 TIP3 OH2  OT           -0.834       15.9994       0
    6694 TIP3 2151 TIP3 H1   HT            0.417         1.008       0
    6695 TIP3 2151 TIP3 H2   HT            0.417         1.008       0
    6696 TIP3 2152 TIP3 OH2  OT           -0.834       15.9994       0
    6697 TIP3 2152 TIP3 H1   HT            0.417         1.008       0
    6698 TIP3 2152 TIP3 H2   HT            0.417         1.008       0
    6699 TIP3 2153 TIP3 OH2  OT           -0.834       15.9994       0
    6700 TIP3 2153 TIP3 H1   HT            0.417         1.008       0
    6701 TIP3 2153 TIP3 H2   HT            0.417         1.008       0
    6702 TIP3 2154 TIP3 OH2  OT           -0.834       15.9994       0
    6703 TIP3 2154 TIP3 H1   HT            0.417         1.008       0
    6704 TIP3 2154 TIP3 H2   HT            0.417         1.008       0
    6705 TIP3 2155 TIP3 OH2  OT           -0.834       15.9994       0
    6706 TIP3 2155 TIP3 H1   HT            0.417         1.008       0
    6707 TIP3 2155 TIP3 H2   HT            0.417         1.008       0
    6708 TIP3 2156 TIP3 OH2  OT           -0.834       15.9994       0
    6709 TIP3 2156 TIP3 H1   HT            0.417         1.008       0
    6710 TIP3 2156 TIP3 H2   HT            0.417         1.008       0
    6711 TIP3 2157 TIP3 OH2  OT           -0.834       15.9994       0
    6712 TIP3 2157 TIP3 H1   HT            0.417         1.008       0
    6713 TIP3 2157 TIP3 H2   HT            0.417         1.008       0
    6714 TIP3 2158 TIP3 OH2  OT           -0.834       15.9994       0
    6715 TIP3 2158 TIP3 H1   HT            0.417         1.008       0
    6716 TIP3 2158 TIP3 H2   HT            0.417         1.008       0
    6717 TIP3 2159 TIP3 OH2  OT           -0.834       15.9994       0
    6718 TIP3 2159 TIP3 H1   HT            0.417         1.008       0
    6719 TIP3 2159 TIP3 H2   HT            0.417         1.008       0
    6720 TIP3 2160 TIP3 OH2  OT           -0.834       15.9994       0
    6721 TIP3 2160 TIP3 H1   HT            0.417         1.008       0
    6722 TIP3 2160 TIP3 H2   HT            0.417         1.008       0
    6723 TIP3 2161 TIP3 OH2  OT           -0.834       15.9994       0
    6724 TIP3 2161 TIP3 H1   HT            0.417         1.008       0
    6725 TIP3 2161 TIP3 H2   HT            0.417         1.008       0
    6726 TIP3 2162 TIP3 OH2  OT           -0.834       15.9994       0
    6727 TIP3 2162 TIP3 H1   HT            0.417         1.008       0
    6728 TIP3 2162 TIP3 H2   HT            0.417         1.008       0
    6729 TIP3 2163 TIP3 OH2  OT           -0.834       15.9994       0
    6730 TIP3 2163 TIP3 H1   HT            0.417         1.008       0
    6731 TIP3 2163 TIP3 H2   HT            0.417         1.008       0
    6732 TIP3 2164 TIP3 OH2  OT           -0.834       15.9994       0
    6733 TIP3 2164 TIP3 H1   HT            0.417         1.008       0
    6734 TIP3 2164 TIP3 H2   HT            0.417         1.008       0
    6735 TIP3 2165 TIP3 OH2  OT           -0.834       15.9994       0
    6736 TIP3 2165 TIP3 H1   HT            0.417         1.008       0
    6737 TIP3 2165 TIP3 H2   HT            0.417         1.008       0
    6738 TIP3 2166 TIP3 OH2  OT           -0.834       15.9994       0
    6739 TIP3 2166 TIP3 H1   HT            0.417         1.008       0
    6740 TIP3 2166 TIP3 H2   HT            0.417         1.008       0
    6741 TIP3 2167 TIP3 OH2  OT           -0.834       15.9994       0
    6742 TIP3 2167 TIP3 H1   HT            0.417         1.008       0
    6743 TIP3 2167 TIP3 H2   HT            0.417         1.008       0
    6744 TIP3 2168 TIP3 OH2  OT           -0.834       15.9994       0
    6745 TIP3 2168 TIP3 H1   HT            0.417         1.008       0
    6746 TIP3 2168 TIP3 H2   HT            0.417         1.008       0
    6747 TIP3 2169 TIP3 OH2  OT           -0.834       15.9994       0
    6748 TIP3 2169 TIP3 H1   HT            0.417         1.008       0
    6749 TIP3 2169 TIP3 H2   HT            0.417         1.008       0
    6750 TIP3 2170 TIP3 OH2  OT           -0.834       15.9994       0
    6751 TIP3 2170 TIP3 H1   HT            0.417         1.008       0
    6752 TIP3 2170 TIP3 H2   HT            0.417         1.008       0
    6753 TIP3 2171 TIP3 OH2  OT           -0.834       15.9994       0
    6754 TIP3 2171 TIP3 H1   HT            0.417         1.008       0
    6755 TIP3 2171 TIP3 H2   HT            0.417         1.008       0
    6756 TIP3 2172 TIP3 OH2  OT           -0.834       15.9994       0
    6757 TIP3 2172 TIP3 H1   HT            0.417         1.008       0
    6758 TIP3 2172 TIP3 H2   HT            0.417         1.008       0
    6759 TIP3 2173 TIP3 OH2  OT           -0.834       15.9994       0
    6760 TIP3 2173 TIP3 H1   HT            0.417         1.008       0
    6761 TIP3 2173 TIP3 H2   HT            0.417         1.008       0
    6762 TIP3 2174 TIP3 OH2  OT           -0.834       15.9994       0
    6763 TIP3 2174 TIP3 H1   HT            0.417         1.008       0
    6764 TIP3 2174 TIP3 H2   HT            0.417         1.008       0
    6765 TIP3 2175 TIP3 OH2  OT           -0.834       15.9994       0
    6766 TIP3 2175 TIP3 H1   HT            0.417         1.008       0
    6767 TIP3 2175 TIP3 H2   HT            0.417         1.008       0
    6768 TIP3 2176 TIP3 OH2  OT           -0.834       15.9994       0
    6769 TIP3 2176 TIP3 H1   HT            0.417         1.008       0
    6770 TIP3 2176 TIP3 H2   HT            0.417         1.008       0
    6771 TIP3 2177 TIP3 OH2  OT           -0.834       15.9994       0
    6772 TIP3 2177 TIP3 H1   HT            0.417         1.008       0
    6773 TIP3 2177 TIP3 H2   HT            0.417         1.008       0
    6774 TIP3 2178 TIP3 OH2  OT           -0.834       15.9994       0
    6775 TIP3 2178 TIP3 H1   HT            0.417         1.008       0
    6776 TIP3 2178 TIP3 H2   HT            0.417         1.008       0
    6777 TIP3 2179 TIP3 OH2  OT           -0.834       15.9994       0
    6778 TIP3 2179 TIP3 H1   HT            0.417         1.008       0
    6779 TIP3 2179 TIP3 H2   HT            0.417         1.008       0
    6780 TIP3 2180 TIP3 OH2  OT           -0.834       15.9994       0
    6781 TIP3 2180 TIP3 H1   HT            0.417         1.008       0
    6782 TIP3 2180 TIP3 H2   HT            0.417         1.008       0
    6783 TIP3 2181 TIP3 OH2  OT           -0.834       15.9994       0
    6784 TIP3 2181 TIP3 H1   HT            0.417         1.008       0
    6785 TIP3 2181 TIP3 H2   HT            0.417         1.008       0
    6786 TIP3 2182 TIP3 OH2  OT           -0.834       15.9994       0
    6787 TIP3 2182 TIP3 H1   HT            0.417         1.008       0
    6788 TIP3 2182 TIP3 H2   HT            0.417         1.008       0
    6789 TIP3 2183 TIP3 OH2  OT           -0.834       15.9994       0
    6790 TIP3 2183 TIP3 H1   HT            0.417         1.008       0
    6791 TIP3 2183 TIP3 H2   HT            0.417         1.008       0
    6792 TIP3 2184 TIP3 OH2  OT           -0.834       15.9994       0
    6793 TIP3 2184 TIP3 H1   HT            0.417         1.008       0
    6794 TIP3 2184 TIP3 H2   HT            0.417         1.008       0
    6795 TIP3 2185 TIP3 OH2  OT           -0.834       15.9994       0
    6796 TIP3 2185 TIP3 H1   HT            0.417         1.008       0
    6797 TIP3 2185 TIP3 H2   HT            0.417         1.008       0
    6798 TIP3 2186 TIP3 OH2  OT           -0.834       15.9994       0
    6799 TIP3 2186 TIP3 H1   HT            0.417         1.008       0
    6800 TIP3 2186 TIP3 H2   HT            0.417         1.008       0
    6801 TIP3 2187 TIP3 OH2  OT           -0.834       15.9994       0
    6802 TIP3 2187 TIP3 H1   HT            0.417         1.008       0
    6803 TIP3 2187 TIP3 H2   HT            0.417         1.008       0
    6804 TIP3 2188 TIP3 OH2  OT           -0.834       15.9994       0
    6805 TIP3 2188 TIP3 H1   HT            0.417         1.008       0
    6806 TIP3 2188 TIP3 H2   HT            0.417         1.008       0
    6807 TIP3 2189 TIP3 OH2  OT           -0.834       15.9994       0
    6808 TIP3 2189 TIP3 H1   HT            0.417         1.008       0
    6809 TIP3 2189 TIP3 H2   HT            0.417         1.008       0
    6810 TIP3 2190 TIP3 OH2  OT           -0.834       15.9994       0
    6811 TIP3 2190 TIP3 H1   HT            0.417         1.008       0
    6812 TIP3 2190 TIP3 H2   HT            0.417         1.008       0
    6813 TIP3 2191 TIP3 OH2  OT           -0.834       15.9994       0
    6814 TIP3 2191 TIP3 H1   HT            0.417         1.008       0
    6815 TIP3 2191 TIP3 H2   HT            0.417         1.008       0
    6816 TIP3 2192 TIP3 OH2  OT           -0.834       15.9994       0
    6817 TIP3 2192 TIP3 H1   HT            0.417         1.008       0
    6818 TIP3 2192 TIP3 H2   HT            0.417         1.008       0
    6819 TIP3 2193 TIP3 OH2  OT           -0.834       15.9994       0
    6820 TIP3 2193 TIP3 H1   HT            0.417         1.008       0
    6821 TIP3 2193 TIP3 H2   HT            0.417         1.008       0
    6822 TIP3 2194 TIP3 OH2  OT           -0.834       15.9994       0
    6823 TIP3 2194 TIP3 H1   HT            0.417         1.008       0
    6824 TIP3 2194 TIP3 H2   HT            0.417         1.008       0
    6825 TIP3 2195 TIP3 OH2  OT           -0.834       15.9994       0
    6826 TIP3 2195 TIP3 H1   HT            0.417         1.008       0
    6827 TIP3 2195 TIP3 H2   HT            0.417         1.008       0
    6828 TIP3 2196 TIP3 OH2  OT           -0.834       15.9994       0
    6829 TIP3 2196 TIP3 H1   HT            0.417         1.008       0
    6830 TIP3 2196 TIP3 H2   HT            0.417         1.008       0
    6831 TIP3 2197 TIP3 OH2  OT           -0.834       15.9994       0
    6832 TIP3 2197 TIP3 H1   HT            0.417         1.008       0
    6833 TIP3 2197 TIP3 H2   HT            0.417         1.008       0
    6834 TIP3 2198 TIP3 OH2  OT           -0.834       15.9994       0
    6835 TIP3 2198 TIP3 H1   HT            0.417         1.008       0
    6836 TIP3 2198 TIP3 H2   HT            0.417         1.008       0
    6837 TIP3 2199 TIP3 OH2  OT           -0.834       15.9994       0
    6838 TIP3 2199 TIP3 H1   HT            0.417         1.008       0
    6839 TIP3 2199 TIP3 H2   HT            0.417         1.008       0
    6840 TIP3 2200 TIP3 OH2  OT           -0.834       15.9994       0
    6841 TIP3 2200 TIP3 H1   HT            0.417         1.008       0
    6842 TIP3 2200 TIP3 H2   HT            0.417         1.008       0
    6843 TIP3 2201 TIP3 OH2  OT           -0.834       15.9994       0
    6844 TIP3 2201 TIP3 H1   HT            0.417         1.008       0
    6845 TIP3 2201 TIP3 H2   HT            0.417         1.008       0
    6846 TIP3 2202 TIP3 OH2  OT           -0.834       15.9994       0
    6847 TIP3 2202 TIP3 H1   HT            0.417         1.008       0
    6848 TIP3 2202 TIP3 H2   HT            0.417         1.008       0
    6849 TIP3 2203 TIP3 OH2  OT           -0.834       15.9994       0
    6850 TIP3 2203 TIP3 H1   HT            0.417         1.008       0
    6851 TIP3 2203 TIP3 H2   HT            0.417         1.008       0
    6852 TIP3 2204 TIP3 OH2  OT           -0.834       15.9994       0
    6853 TIP3 2204 TIP3 H1   HT            0.417         1.008       0
    6854 TIP3 2204 TIP3 H2   HT            0.417         1.008       0
    6855 TIP3 2205 TIP3 OH2  OT           -0.834       15.9994       0
    6856 TIP3 2205 TIP3 H1   HT            0.417         1.008       0
    6857 TIP3 2205 TIP3 H2   HT            0.417         1.008       0
    6858 TIP3 2206 TIP3 OH2  OT           -0.834       15.9994       0
    6859 TIP3 2206 TIP3 H1   HT            0.417         1.008       0
    6860 TIP3 2206 TIP3 H2   HT            0.417         1.008       0
    6861 TIP3 2207 TIP3 OH2  OT           -0.834       15.9994       0
    6862 TIP3 2207 TIP3 H1   HT            0.417         1.008       0
    6863 TIP3 2207 TIP3 H2   HT            0.417         1.008       0
    6864 TIP3 2208 TIP3 OH2  OT           -0.834       15.9994       0
    6865 TIP3 2208 TIP3 H1   HT            0.417         1.008       0
    6866 TIP3 2208 TIP3 H2   HT            0.417         1.008       0
    6867 TIP3 2209 TIP3 OH2  OT           -0.834       15.9994       0
    6868 TIP3 2209 TIP3 H1   HT            0.417         1.008       0
    6869 TIP3 2209 TIP3 H2   HT            0.417         1.008       0
    6870 TIP3 2210 TIP3 OH2  OT           -0.834       15.9994       0
    6871 TIP3 2210 TIP3 H1   HT            0.417         1.008       0
    6872 TIP3 2210 TIP3 H2   HT            0.417         1.008       0
    6873 TIP3 2211 TIP3 OH2  OT           -0.834       15.9994       0
    6874 TIP3 2211 TIP3 H1   HT            0.417         1.008       0
    6875 TIP3 2211 TIP3 H2   HT            0.417         1.008       0
    6876 TIP3 2212 TIP3 OH2  OT           -0.834       15.9994       0
    6877 TIP3 2212 TIP3 H1   HT            0.417         1.008       0
    6878 TIP3 2212 TIP3 H2   HT            0.417         1.008       0
    6879 TIP3 2213 TIP3 OH2  OT           -0.834       15.9994       0
    6880 TIP3 2213 TIP3 H1   HT            0.417         1.008       0
    6881 TIP3 2213 TIP3 H2   HT            0.417         1.008       0
    6882 TIP3 2214 TIP3 OH2  OT           -0.834       15.9994       0
    6883 TIP3 2214 TIP3 H1   HT            0.417         1.008       0
    6884 TIP3 2214 TIP3 H2   HT            0.417         1.008       0
    6885 TIP3 2215 TIP3 OH2  OT           -0.834       15.9994       0
    6886 TIP3 2215 TIP3 H1   HT            0.417         1.008       0
    6887 TIP3 2215 TIP3 H2   HT            0.417         1.008       0
    6888 TIP3 2216 TIP3 OH2  OT           -0.834       15.9994       0
    6889 TIP3 2216 TIP3 H1   HT            0.417         1.008       0
    6890 TIP3 2216 TIP3 H2   HT            0.417         1.008       0
    6891 TIP3 2217 TIP3 OH2  OT           -0.834       15.9994       0
    6892 TIP3 2217 TIP3 H1   HT            0.417         1.008       0
    6893 TIP3 2217 TIP3 H2   HT            0.417         1.008       0
    6894 TIP3 2218 TIP3 OH2  OT           -0.834       15.9994       0
    6895 TIP3 2218 TIP3 H1   HT            0.417         1.008       0
    6896 TIP3 2218 TIP3 H2   HT            0.417         1.008       0
    6897 TIP3 2219 TIP3 OH2  OT           -0.834       15.9994       0
    6898 TIP3 2219 TIP3 H1   HT            0.417         1.008       0
    6899 TIP3 2219 TIP3 H2   HT            0.417         1.008       0
    6900 TIP3 2220 TIP3 OH2  OT           -0.834       15.9994       0
    6901 TIP3 2220 TIP3 H1   HT            0.417         1.008       0
    6902 TIP3 2220 TIP3 H2   HT            0.417         1.008       0
    6903 TIP3 2221 TIP3 OH2  OT           -0.834       15.9994       0
    6904 TIP3 2221 TIP3 H1   HT            0.417         1.008       0
    6905 TIP3 2221 TIP3 H2   HT            0.417         1.008       0
    6906 TIP3 2222 TIP3 OH2  OT           -0.834       15.9994       0
    6907 TIP3 2222 TIP3 H1   HT            0.417         1.008       0
    6908 TIP3 2222 TIP3 H2   HT            0.417         1.008       0
    6909 TIP3 2223 TIP3 OH2  OT           -0.834       15.9994       0
    6910 TIP3 2223 TIP3 H1   HT            0.417         1.008       0
    6911 TIP3 2223 TIP3 H2   HT            0.417         1.008       0
    6912 TIP3 2224 TIP3 OH2  OT           -0.834       15.9994       0
    6913 TIP3 2224 TIP3 H1   HT            0.417         1.008       0
    6914 TIP3 2224 TIP3 H2   HT            0.417         1.008       0
    6915 TIP3 2225 TIP3 OH2  OT           -0.834       15.9994       0
    6916 TIP3 2225 TIP3 H1   HT            0.417         1.008       0
    6917 TIP3 2225 TIP3 H2   HT            0.417         1.008       0
    6918 TIP3 2226 TIP3 OH2  OT           -0.834       15.9994       0
    6919 TIP3 2226 TIP3 H1   HT            0.417         1.008       0
    6920 TIP3 2226 TIP3 H2   HT            0.417         1.008       0
    6921 TIP3 2227 TIP3 OH2  OT           -0.834       15.9994       0
    6922 TIP3 2227 TIP3 H1   HT            0.417         1.008       0
    6923 TIP3 2227 TIP3 H2   HT            0.417         1.008       0
    6924 TIP3 2228 TIP3 OH2  OT           -0.834       15.9994       0
    6925 TIP3 2228 TIP3 H1   HT            0.417         1.008       0
    6926 TIP3 2228 TIP3 H2   HT            0.417         1.008       0
    6927 TIP3 2229 TIP3 OH2  OT           -0.834       15.9994       0
    6928 TIP3 2229 TIP3 H1   HT            0.417         1.008       0
    6929 TIP3 2229 TIP3 H2   HT            0.417         1.008       0
    6930 TIP3 2230 TIP3 OH2  OT           -0.834       15.9994       0
    6931 TIP3 2230 TIP3 H1   HT            0.417         1.008       0
    6932 TIP3 2230 TIP3 H2   HT            0.417         1.008       0
    6933 TIP3 2231 TIP3 OH2  OT           -0.834       15.9994       0
    6934 TIP3 2231 TIP3 H1   HT            0.417         1.008       0
    6935 TIP3 2231 TIP3 H2   HT            0.417         1.008       0
    6936 TIP3 2232 TIP3 OH2  OT           -0.834       15.9994       0
    6937 TIP3 2232 TIP3 H1   HT            0.417         1.008       0
    6938 TIP3 2232 TIP3 H2   HT            0.417         1.008       0
    6939 TIP3 2233 TIP3 OH2  OT           -0.834       15.9994       0
    6940 TIP3 2233 TIP3 H1   HT            0.417         1.008       0
    6941 TIP3 2233 TIP3 H2   HT            0.417         1.008       0
    6942 TIP3 2234 TIP3 OH2  OT           -0.834       15.9994       0
    6943 TIP3 2234 TIP3 H1   HT            0.417         1.008       0
    6944 TIP3 2234 TIP3 H2   HT            0.417         1.008       0
    6945 TIP3 2235 TIP3 OH2  OT           -0.834       15.9994       0
    6946 TIP3 2235 TIP3 H1   HT            0.417         1.008       0
    6947 TIP3 2235 TIP3 H2   HT            0.417         1.008       0
    6948 TIP3 2236 TIP3 OH2  OT           -0.834       15.9994       0
    6949 TIP3 2236 TIP3 H1   HT            0.417         1.008       0
    6950 TIP3 2236 TIP3 H2   HT            0.417         1.008       0
    6951 TIP3 2237 TIP3 OH2  OT           -0.834       15.9994       0
    6952 TIP3 2237 TIP3 H1   HT            0.417         1.008       0
    6953 TIP3 2237 TIP3 H2   HT            0.417         1.008       0
    6954 TIP3 2238 TIP3 OH2  OT           -0.834       15.9994       0
    6955 TIP3 2238 TIP3 H1   HT            0.417         1.008       0
    6956 TIP3 2238 TIP3 H2   HT            0.417         1.008       0
    6957 TIP3 2239 TIP3 OH2  OT           -0.834       15.9994       0
    6958 TIP3 2239 TIP3 H1   HT            0.417         1.008       0
    6959 TIP3 2239 TIP3 H2   HT            0.417         1.008       0
    6960 TIP3 2240 TIP3 OH2  OT           -0.834       15.9994       0
    6961 TIP3 2240 TIP3 H1   HT            0.417         1.008       0
    6962 TIP3 2240 TIP3 H2   HT            0.417         1.008       0
    6963 TIP3 2241 TIP3 OH2  OT           -0.834       15.9994       0
    6964 TIP3 2241 TIP3 H1   HT            0.417         1.008       0
    6965 TIP3 2241 TIP3 H2   HT            0.417         1.008       0
    6966 TIP3 2242 TIP3 OH2  OT           -0.834       15.9994       0
    6967 TIP3 2242 TIP3 H1   HT            0.417         1.008       0
    6968 TIP3 2242 TIP3 H2   HT            0.417         1.008       0
    6969 TIP3 2243 TIP3 OH2  OT           -0.834       15.9994       0
    6970 TIP3 2243 TIP3 H1   HT            0.417         1.008       0
    6971 TIP3 2243 TIP3 H2   HT            0.417         1.008       0
    6972 TIP3 2244 TIP3 OH2  OT           -0.834       15.9994       0
    6973 TIP3 2244 TIP3 H1   HT            0.417         1.008       0
    6974 TIP3 2244 TIP3 H2   HT            0.417         1.008       0
    6975 TIP3 2245 TIP3 OH2  OT           -0.834       15.9994       0
    6976 TIP3 2245 TIP3 H1   HT            0.417         1.008       0
    6977 TIP3 2245 TIP3 H2   HT            0.417         1.008       0
    6978 TIP3 2246 TIP3 OH2  OT           -0.834       15.9994       0
    6979 TIP3 2246 TIP3 H1   HT            0.417         1.008       0
    6980 TIP3 2246 TIP3 H2   HT            0.417         1.008       0
    6981 TIP3 2247 TIP3 OH2  OT           -0.834       15.9994       0
    6982 TIP3 2247 TIP3 H1   HT            0.417         1.008       0
    6983 TIP3 2247 TIP3 H2   HT            0.417         1.008       0
    6984 TIP3 2248 TIP3 OH2  OT           -0.834       15.9994       0
    6985 TIP3 2248 TIP3 H1   HT            0.417         1.008       0
    6986 TIP3 2248 TIP3 H2   HT            0.417         1.008       0
    6987 TIP3 2249 TIP3 OH2  OT           -0.834       15.9994       0
    6988 TIP3 2249 TIP3 H1   HT            0.417         1.008       0
    6989 TIP3 2249 TIP3 H2   HT            0.417         1.008       0
    6990 TIP3 2250 TIP3 OH2  OT           -0.834       15.9994       0
    6991 TIP3 2250 TIP3 H1   HT            0.417         1.008       0
    6992 TIP3 2250 TIP3 H2   HT            0.417         1.008       0
    6993 TIP3 2251 TIP3 OH2  OT           -0.834       15.9994       0
    6994 TIP3 2251 TIP3 H1   HT            0.417         1.008       0
    6995 TIP3 2251 TIP3 H2   HT            0.417         1.008       0
    6996 TIP3 2252 TIP3 OH2  OT           -0.834       15.9994       0
    6997 TIP3 2252 TIP3 H1   HT            0.417         1.008       0
    6998 TIP3 2252 TIP3 H2   HT            0.417         1.008       0
    6999 TIP3 2253 TIP3 OH2  OT           -0.834       15.9994       0
    7000 TIP3 2253 TIP3 H1   HT            0.417         1.008       0
    7001 TIP3 2253 TIP3 H2   HT            0.417         1.008       0
    7002 TIP3 2254 TIP3 OH2  OT           -0.834       15.9994       0
    7003 TIP3 2254 TIP3 H1   HT            0.417         1.008       0
    7004 TIP3 2254 TIP3 H2   HT            0.417         1.008       0
    7005 TIP3 2255 TIP3 OH2  OT           -0.834       15.9994       0
    7006 TIP3 2255 TIP3 H1   HT            0.417         1.008       0
    7007 TIP3 2255 TIP3 H2   HT            0.417         1.008       0
    7008 TIP3 2256 TIP3 OH2  OT           -0.834       15.9994       0
    7009 TIP3 2256 TIP3 H1   HT            0.417         1.008       0
    7010 TIP3 2256 TIP3 H2   HT            0.417         1.008       0
    7011 TIP3 2257 TIP3 OH2  OT           -0.834       15.9994       0
    7012 TIP3 2257 TIP3 H1   HT            0.417         1.008       0
    7013 TIP3 2257 TIP3 H2   HT            0.417         1.008       0
    7014 TIP3 2258 TIP3 OH2  OT           -0.834       15.9994       0
    7015 TIP3 2258 TIP3 H1   HT            0.417         1.008       0
    7016 TIP3 2258 TIP3 H2   HT            0.417         1.008       0
    7017 TIP3 2259 TIP3 OH2  OT           -0.834       15.9994       0
    7018 TIP3 2259 TIP3 H1   HT            0.417         1.008       0
    7019 TIP3 2259 TIP3 H2   HT            0.417         1.008       0
    7020 TIP3 2260 TIP3 OH2  OT           -0.834       15.9994       0
    7021 TIP3 2260 TIP3 H1   HT            0.417         1.008       0
    7022 TIP3 2260 TIP3 H2   HT            0.417         1.008       0
    7023 TIP3 2261 TIP3 OH2  OT           -0.834       15.9994       0
    7024 TIP3 2261 TIP3 H1   HT            0.417         1.008       0
    7025 TIP3 2261 TIP3 H2   HT            0.417         1.008       0
    7026 TIP3 2262 TIP3 OH2  OT           -0.834       15.9994       0
    7027 TIP3 2262 TIP3 H1   HT            0.417         1.008       0
    7028 TIP3 2262 TIP3 H2   HT            0.417         1.008       0
    7029 TIP3 2263 TIP3 OH2  OT           -0.834       15.9994       0
    7030 TIP3 2263 TIP3 H1   HT            0.417         1.008       0
    7031 TIP3 2263 TIP3 H2   HT            0.417         1.008       0
    7032 TIP3 2264 TIP3 OH2  OT           -0.834       15.9994       0
    7033 TIP3 2264 TIP3 H1   HT            0.417         1.008       0
    7034 TIP3 2264 TIP3 H2   HT            0.417         1.008       0
    7035 TIP3 2265 TIP3 OH2  OT           -0.834       15.9994       0
    7036 TIP3 2265 TIP3 H1   HT            0.417         1.008       0
    7037 TIP3 2265 TIP3 H2   HT            0.417         1.008       0
    7038 TIP3 2266 TIP3 OH2  OT           -0.834       15.9994       0
    7039 TIP3 2266 TIP3 H1   HT            0.417         1.008       0
    7040 TIP3 2266 TIP3 H2   HT            0.417         1.008       0
    7041 TIP3 2267 TIP3 OH2  OT           -0.834       15.9994       0
    7042 TIP3 2267 TIP3 H1   HT            0.417         1.008       0
    7043 TIP3 2267 TIP3 H2   HT            0.417         1.008       0
    7044 TIP3 2268 TIP3 OH2  OT           -0.834       15.9994       0
    7045 TIP3 2268 TIP3 H1   HT            0.417         1.008       0
    7046 TIP3 2268 TIP3 H2   HT            0.417         1.008       0
    7047 TIP3 2269 TIP3 OH2  OT           -0.834       15.9994       0
    7048 TIP3 2269 TIP3 H1   HT            0.417         1.008       0
    7049 TIP3 2269 TIP3 H2   HT            0.417         1.008       0
    7050 TIP3 2270 TIP3 OH2  OT           -0.834       15.9994       0
    7051 TIP3 2270 TIP3 H1   HT            0.417         1.008       0
    7052 TIP3 2270 TIP3 H2   HT            0.417         1.008       0
    7053 TIP3 2271 TIP3 OH2  OT           -0.834       15.9994       0
    7054 TIP3 2271 TIP3 H1   HT            0.417         1.008       0
    7055 TIP3 2271 TIP3 H2   HT            0.417         1.008       0
    7056 TIP3 2272 TIP3 OH2  OT           -0.834       15.9994       0
    7057 TIP3 2272 TIP3 H1   HT            0.417         1.008       0
    7058 TIP3 2272 TIP3 H2   HT            0.417         1.008       0
    7059 TIP3 2273 TIP3 OH2  OT           -0.834       15.9994       0
    7060 TIP3 2273 TIP3 H1   HT            0.417         1.008       0
    7061 TIP3 2273 TIP3 H2   HT            0.417         1.008       0
    7062 TIP3 2274 TIP3 OH2  OT           -0.834       15.9994       0
    7063 TIP3 2274 TIP3 H1   HT            0.417         1.008       0
    7064 TIP3 2274 TIP3 H2   HT            0.417         1.008       0
    7065 TIP3 2275 TIP3 OH2  OT           -0.834       15.9994       0
    7066 TIP3 2275 TIP3 H1   HT            0.417         1.008       0
    7067 TIP3 2275 TIP3 H2   HT            0.417         1.008       0
    7068 TIP3 2276 TIP3 OH2  OT           -0.834       15.9994       0
    7069 TIP3 2276 TIP3 H1   HT            0.417         1.008       0
    7070 TIP3 2276 TIP3 H2   HT            0.417         1.008       0
    7071 TIP3 2277 TIP3 OH2  OT           -0.834       15.9994       0
    7072 TIP3 2277 TIP3 H1   HT            0.417         1.008       0
    7073 TIP3 2277 TIP3 H2   HT            0.417         1.008       0
    7074 TIP3 2278 TIP3 OH2  OT           -0.834       15.9994       0
    7075 TIP3 2278 TIP3 H1   HT            0.417         1.008       0
    7076 TIP3 2278 TIP3 H2   HT            0.417         1.008       0
    7077 TIP3 2279 TIP3 OH2  OT           -0.834       15.9994       0
    7078 TIP3 2279 TIP3 H1   HT            0.417         1.008       0
    7079 TIP3 2279 TIP3 H2   HT            0.417         1.008       0
    7080 TIP3 2280 TIP3 OH2  OT           -0.834       15.9994       0
    7081 TIP3 2280 TIP3 H1   HT            0.417         1.008       0
    7082 TIP3 2280 TIP3 H2   HT            0.417         1.008       0
    7083 TIP3 2281 TIP3 OH2  OT           -0.834       15.9994       0
    7084 TIP3 2281 TIP3 H1   HT            0.417         1.008       0
    7085 TIP3 2281 TIP3 H2   HT            0.417         1.008       0
    7086 TIP3 2282 TIP3 OH2  OT           -0.834       15.9994       0
    7087 TIP3 2282 TIP3 H1   HT            0.417         1.008       0
    7088 TIP3 2282 TIP3 H2   HT            0.417         1.008       0
    7089 TIP3 2283 TIP3 OH2  OT           -0.834       15.9994       0
    7090 TIP3 2283 TIP3 H1   HT            0.417         1.008       0
    7091 TIP3 2283 TIP3 H2   HT            0.417         1.008       0
    7092 TIP3 2284 TIP3 OH2  OT           -0.834       15.9994       0
    7093 TIP3 2284 TIP3 H1   HT            0.417         1.008       0
    7094 TIP3 2284 TIP3 H2   HT            0.417         1.008       0
    7095 TIP3 2285 TIP3 OH2  OT           -0.834       15.9994       0
    7096 TIP3 2285 TIP3 H1   HT            0.417         1.008       0
    7097 TIP3 2285 TIP3 H2   HT            0.417         1.008       0
    7098 TIP3 2286 TIP3 OH2  OT           -0.834       15.9994       0
    7099 TIP3 2286 TIP3 H1   HT            0.417         1.008       0
    7100 TIP3 2286 TIP3 H2   HT            0.417         1.008       0
    7101 TIP3 2287 TIP3 OH2  OT           -0.834       15.9994       0
    7102 TIP3 2287 TIP3 H1   HT            0.417         1.008       0
    7103 TIP3 2287 TIP3 H2   HT            0.417         1.008       0
    7104 TIP3 2288 TIP3 OH2  OT           -0.834       15.9994       0
    7105 TIP3 2288 TIP3 H1   HT            0.417         1.008       0
    7106 TIP3 2288 TIP3 H2   HT            0.417         1.008       0
    7107 TIP3 2289 TIP3 OH2  OT           -0.834       15.9994       0
    7108 TIP3 2289 TIP3 H1   HT            0.417         1.008       0
    7109 TIP3 2289 TIP3 H2   HT            0.417         1.008       0
    7110 TIP3 2290 TIP3 OH2  OT           -0.834       15.9994       0
    7111 TIP3 2290 TIP3 H1   HT            0.417         1.008       0
    7112 TIP3 2290 TIP3 H2   HT            0.417         1.008       0
    7113 TIP3 2291 TIP3 OH2  OT           -0.834       15.9994       0
    7114 TIP3 2291 TIP3 H1   HT            0.417         1.008       0
    7115 TIP3 2291 TIP3 H2   HT            0.417         1.008       0
    7116 TIP3 2292 TIP3 OH2  OT           -0.834       15.9994       0
    7117 TIP3 2292 TIP3 H1   HT            0.417         1.008       0
    7118 TIP3 2292 TIP3 H2   HT            0.417         1.008       0
    7119 TIP3 2293 TIP3 OH2  OT           -0.834       15.9994       0
    7120 TIP3 2293 TIP3 H1   HT            0.417         1.008       0
    7121 TIP3 2293 TIP3 H2   HT            0.417         1.008       0
    7122 TIP3 2294 TIP3 OH2  OT           -0.834       15.9994       0
    7123 TIP3 2294 TIP3 H1   HT            0.417         1.008       0
    7124 TIP3 2294 TIP3 H2   HT            0.417         1.008       0
    7125 TIP3 2295 TIP3 OH2  OT           -0.834       15.9994       0
    7126 TIP3 2295 TIP3 H1   HT            0.417         1.008       0
    7127 TIP3 2295 TIP3 H2   HT            0.417         1.008       0
    7128 TIP3 2296 TIP3 OH2  OT           -0.834       15.9994       0
    7129 TIP3 2296 TIP3 H1   HT            0.417         1.008       0
    7130 TIP3 2296 TIP3 H2   HT            0.417         1.008       0
    7131 TIP3 2297 TIP3 OH2  OT           -0.834       15.9994       0
    7132 TIP3 2297 TIP3 H1   HT            0.417         1.008       0
    7133 TIP3 2297 TIP3 H2   HT            0.417         1.008       0
    7134 TIP3 2298 TIP3 OH2  OT           -0.834       15.9994       0
    7135 TIP3 2298 TIP3 H1   HT            0.417         1.008       0
    7136 TIP3 2298 TIP3 H2   HT            0.417         1.008       0
    7137 TIP3 2299 TIP3 OH2  OT           -0.834       15.9994       0
    7138 TIP3 2299 TIP3 H1   HT            0.417         1.008       0
    7139 TIP3 2299 TIP3 H2   HT            0.417         1.008       0
    7140 TIP3 2300 TIP3 OH2  OT           -0.834       15.9994       0
    7141 TIP3 2300 TIP3 H1   HT            0.417         1.008       0
    7142 TIP3 2300 TIP3 H2   HT            0.417         1.008       0
    7143 TIP3 2301 TIP3 OH2  OT           -0.834       15.9994       0
    7144 TIP3 2301 TIP3 H1   HT            0.417         1.008       0
    7145 TIP3 2301 TIP3 H2   HT            0.417         1.008       0
    7146 TIP3 2302 TIP3 OH2  OT           -0.834       15.9994       0
    7147 TIP3 2302 TIP3 H1   HT            0.417         1.008       0
    7148 TIP3 2302 TIP3 H2   HT            0.417         1.008       0
    7149 TIP3 2303 TIP3 OH2  OT           -0.834       15.9994       0
    7150 TIP3 2303 TIP3 H1   HT            0.417         1.008       0
    7151 TIP3 2303 TIP3 H2   HT            0.417         1.008       0
    7152 TIP3 2304 TIP3 OH2  OT           -0.834       15.9994       0
    7153 TIP3 2304 TIP3 H1   HT            0.417         1.008       0
    7154 TIP3 2304 TIP3 H2   HT            0.417         1.008       0
    7155 TIP3 2305 TIP3 OH2  OT           -0.834       15.9994       0
    7156 TIP3 2305 TIP3 H1   HT            0.417         1.008       0
    7157 TIP3 2305 TIP3 H2   HT            0.417         1.008       0
    7158 TIP3 2306 TIP3 OH2  OT           -0.834       15.9994       0
    7159 TIP3 2306 TIP3 H1   HT            0.417         1.008       0
    7160 TIP3 2306 TIP3 H2   HT            0.417         1.008       0
    7161 TIP3 2307 TIP3 OH2  OT           -0.834       15.9994       0
    7162 TIP3 2307 TIP3 H1   HT            0.417         1.008       0
    7163 TIP3 2307 TIP3 H2   HT            0.417         1.008       0
    7164 TIP3 2308 TIP3 OH2  OT           -0.834       15.9994       0
    7165 TIP3 2308 TIP3 H1   HT            0.417         1.008       0
    7166 TIP3 2308 TIP3 H2   HT            0.417         1.008       0
    7167 TIP3 2309 TIP3 OH2  OT           -0.834       15.9994       0
    7168 TIP3 2309 TIP3 H1   HT            0.417         1.008       0
    7169 TIP3 2309 TIP3 H2   HT            0.417         1.008       0
    7170 TIP3 2310 TIP3 OH2  OT           -0.834       15.9994       0
    7171 TIP3 2310 TIP3 H1   HT            0.417         1.008       0
    7172 TIP3 2310 TIP3 H2   HT            0.417         1.008       0
    7173 TIP3 2311 TIP3 OH2  OT           -0.834       15.9994       0
    7174 TIP3 2311 TIP3 H1   HT            0.417         1.008       0
    7175 TIP3 2311 TIP3 H2   HT            0.417         1.008       0
    7176 TIP3 2312 TIP3 OH2  OT           -0.834       15.9994       0
    7177 TIP3 2312 TIP3 H1   HT            0.417         1.008       0
    7178 TIP3 2312 TIP3 H2   HT            0.417         1.008       0
    7179 TIP3 2313 TIP3 OH2  OT           -0.834       15.9994       0
    7180 TIP3 2313 TIP3 H1   HT            0.417         1.008       0
    7181 TIP3 2313 TIP3 H2   HT            0.417         1.008       0
    7182 TIP3 2314 TIP3 OH2  OT           -0.834       15.9994       0
    7183 TIP3 2314 TIP3 H1   HT            0.417         1.008       0
    7184 TIP3 2314 TIP3 H2   HT            0.417         1.008       0
    7185 TIP3 2315 TIP3 OH2  OT           -0.834       15.9994       0
    7186 TIP3 2315 TIP3 H1   HT            0.417         1.008       0
    7187 TIP3 2315 TIP3 H2   HT            0.417         1.008       0
    7188 TIP3 2316 TIP3 OH2  OT           -0.834       15.9994       0
    7189 TIP3 2316 TIP3 H1   HT            0.417         1.008       0
    7190 TIP3 2316 TIP3 H2   HT            0.417         1.008       0
    7191 TIP3 2317 TIP3 OH2  OT           -0.834       15.9994       0
    7192 TIP3 2317 TIP3 H1   HT            0.417         1.008       0
    7193 TIP3 2317 TIP3 H2   HT            0.417         1.008       0
    7194 TIP3 2318 TIP3 OH2  OT           -0.834       15.9994       0
    7195 TIP3 2318 TIP3 H1   HT            0.417         1.008       0
    7196 TIP3 2318 TIP3 H2   HT            0.417         1.008       0
    7197 TIP3 2319 TIP3 OH2  OT           -0.834       15.9994       0
    7198 TIP3 2319 TIP3 H1   HT            0.417         1.008       0
    7199 TIP3 2319 TIP3 H2   HT            0.417         1.008       0
    7200 TIP3 2320 TIP3 OH2  OT           -0.834       15.9994       0
    7201 TIP3 2320 TIP3 H1   HT            0.417         1.008       0
    7202 TIP3 2320 TIP3 H2   HT            0.417         1.008       0
    7203 TIP3 2321 TIP3 OH2  OT           -0.834       15.9994       0
    7204 TIP3 2321 TIP3 H1   HT            0.417         1.008       0
    7205 TIP3 2321 TIP3 H2   HT            0.417         1.008       0
    7206 TIP3 2322 TIP3 OH2  OT           -0.834       15.9994       0
    7207 TIP3 2322 TIP3 H1   HT            0.417         1.008       0
    7208 TIP3 2322 TIP3 H2   HT            0.417         1.008       0
    7209 TIP3 2323 TIP3 OH2  OT           -0.834       15.9994       0
    7210 TIP3 2323 TIP3 H1   HT            0.417         1.008       0
    7211 TIP3 2323 TIP3 H2   HT            0.417         1.008       0
    7212 TIP3 2324 TIP3 OH2  OT           -0.834       15.9994       0
    7213 TIP3 2324 TIP3 H1   HT            0.417         1.008       0
    7214 TIP3 2324 TIP3 H2   HT            0.417         1.008       0
    7215 TIP3 2325 TIP3 OH2  OT           -0.834       15.9994       0
    7216 TIP3 2325 TIP3 H1   HT            0.417         1.008       0
    7217 TIP3 2325 TIP3 H2   HT            0.417         1.008       0
    7218 TIP3 2326 TIP3 OH2  OT           -0.834       15.9994       0
    7219 TIP3 2326 TIP3 H1   HT            0.417         1.008       0
    7220 TIP3 2326 TIP3 H2   HT            0.417         1.008       0
    7221 TIP3 2327 TIP3 OH2  OT           -0.834       15.9994       0
    7222 TIP3 2327 TIP3 H1   HT            0.417         1.008       0
    7223 TIP3 2327 TIP3 H2   HT            0.417         1.008       0
    7224 TIP3 2328 TIP3 OH2  OT           -0.834       15.9994       0
    7225 TIP3 2328 TIP3 H1   HT            0.417         1.008       0
    7226 TIP3 2328 TIP3 H2   HT            0.417         1.008       0
    7227 TIP3 2329 TIP3 OH2  OT           -0.834       15.9994       0
    7228 TIP3 2329 TIP3 H1   HT            0.417         1.008       0
    7229 TIP3 2329 TIP3 H2   HT            0.417         1.008       0
    7230 TIP3 2330 TIP3 OH2  OT           -0.834       15.9994       0
    7231 TIP3 2330 TIP3 H1   HT            0.417         1.008       0
    7232 TIP3 2330 TIP3 H2   HT            0.417         1.008       0
    7233 TIP3 2331 TIP3 OH2  OT           -0.834       15.9994       0
    7234 TIP3 2331 TIP3 H1   HT            0.417         1.008       0
    7235 TIP3 2331 TIP3 H2   HT            0.417         1.008       0
    7236 TIP3 2332 TIP3 OH2  OT           -0.834       15.9994       0
    7237 TIP3 2332 TIP3 H1   HT            0.417         1.008       0
    7238 TIP3 2332 TIP3 H2   HT            0.417         1.008       0
    7239 TIP3 2333 TIP3 OH2  OT           -0.834       15.9994       0
    7240 TIP3 2333 TIP3 H1   HT            0.417         1.008       0
    7241 TIP3 2333 TIP3 H2   HT            0.417         1.008       0
    7242 TIP3 2334 TIP3 OH2  OT           -0.834       15.9994       0
    7243 TIP3 2334 TIP3 H1   HT            0.417         1.008       0
    7244 TIP3 2334 TIP3 H2   HT            0.417         1.008       0
    7245 TIP3 2335 TIP3 OH2  OT           -0.834       15.9994       0
    7246 TIP3 2335 TIP3 H1   HT            0.417         1.008       0
    7247 TIP3 2335 TIP3 H2   HT            0.417         1.008       0
    7248 TIP3 2336 TIP3 OH2  OT           -0.834       15.9994       0
    7249 TIP3 2336 TIP3 H1   HT            0.417         1.008       0
    7250 TIP3 2336 TIP3 H2   HT            0.417         1.008       0
    7251 TIP3 2337 TIP3 OH2  OT           -0.834       15.9994       0
    7252 TIP3 2337 TIP3 H1   HT            0.417         1.008       0
    7253 TIP3 2337 TIP3 H2   HT            0.417         1.008       0
    7254 TIP3 2338 TIP3 OH2  OT           -0.834       15.9994       0
    7255 TIP3 2338 TIP3 H1   HT            0.417         1.008       0
    7256 TIP3 2338 TIP3 H2   HT            0.417         1.008       0
    7257 TIP3 2339 TIP3 OH2  OT           -0.834       15.9994       0
    7258 TIP3 2339 TIP3 H1   HT            0.417         1.008       0
    7259 TIP3 2339 TIP3 H2   HT            0.417         1.008       0
    7260 TIP3 2340 TIP3 OH2  OT           -0.834       15.9994       0
    7261 TIP3 2340 TIP3 H1   HT            0.417         1.008       0
    7262 TIP3 2340 TIP3 H2   HT            0.417         1.008       0
    7263 TIP3 2341 TIP3 OH2  OT           -0.834       15.9994       0
    7264 TIP3 2341 TIP3 H1   HT            0.417         1.008       0
    7265 TIP3 2341 TIP3 H2   HT            0.417         1.008       0
    7266 TIP3 2342 TIP3 OH2  OT           -0.834       15.9994       0
    7267 TIP3 2342 TIP3 H1   HT            0.417         1.008       0
    7268 TIP3 2342 TIP3 H2   HT            0.417         1.008       0
    7269 TIP3 2343 TIP3 OH2  OT           -0.834       15.9994       0
    7270 TIP3 2343 TIP3 H1   HT            0.417         1.008       0
    7271 TIP3 2343 TIP3 H2   HT            0.417         1.008       0
    7272 TIP3 2344 TIP3 OH2  OT           -0.834       15.9994       0
    7273 TIP3 2344 TIP3 H1   HT            0.417         1.008       0
    7274 TIP3 2344 TIP3 H2   HT            0.417         1.008       0
    7275 TIP3 2345 TIP3 OH2  OT           -0.834       15.9994       0
    7276 TIP3 2345 TIP3 H1   HT            0.417         1.008       0
    7277 TIP3 2345 TIP3 H2   HT            0.417         1.008       0
    7278 TIP3 2346 TIP3 OH2  OT           -0.834       15.9994       0
    7279 TIP3 2346 TIP3 H1   HT            0.417         1.008       0
    7280 TIP3 2346 TIP3 H2   HT            0.417         1.008       0
    7281 TIP3 2347 TIP3 OH2  OT           -0.834       15.9994       0
    7282 TIP3 2347 TIP3 H1   HT            0.417         1.008       0
    7283 TIP3 2347 TIP3 H2   HT            0.417         1.008       0
    7284 TIP3 2348 TIP3 OH2  OT           -0.834       15.9994       0
    7285 TIP3 2348 TIP3 H1   HT            0.417         1.008       0
    7286 TIP3 2348 TIP3 H2   HT            0.417         1.008       0
    7287 TIP3 2349 TIP3 OH2  OT           -0.834       15.9994       0
    7288 TIP3 2349 TIP3 H1   HT            0.417         1.008       0
    7289 TIP3 2349 TIP3 H2   HT            0.417         1.008       0
    7290 TIP3 2350 TIP3 OH2  OT           -0.834       15.9994       0
    7291 TIP3 2350 TIP3 H1   HT            0.417         1.008       0
    7292 TIP3 2350 TIP3 H2   HT            0.417         1.008       0
    7293 TIP3 2351 TIP3 OH2  OT           -0.834       15.9994       0
    7294 TIP3 2351 TIP3 H1   HT            0.417         1.008       0
    7295 TIP3 2351 TIP3 H2   HT            0.417         1.008       0
    7296 TIP3 2352 TIP3 OH2  OT           -0.834       15.9994       0
    7297 TIP3 2352 TIP3 H1   HT            0.417         1.008       0
    7298 TIP3 2352 TIP3 H2   HT            0.417         1.008       0
    7299 TIP3 2353 TIP3 OH2  OT           -0.834       15.9994       0
    7300 TIP3 2353 TIP3 H1   HT            0.417         1.008       0
    7301 TIP3 2353 TIP3 H2   HT            0.417         1.008       0
    7302 TIP3 2354 TIP3 OH2  OT           -0.834       15.9994       0
    7303 TIP3 2354 TIP3 H1   HT            0.417         1.008       0
    7304 TIP3 2354 TIP3 H2   HT            0.417         1.008       0
    7305 TIP3 2355 TIP3 OH2  OT           -0.834       15.9994       0
    7306 TIP3 2355 TIP3 H1   HT            0.417         1.008       0
    7307 TIP3 2355 TIP3 H2   HT            0.417         1.008       0
    7308 TIP3 2356 TIP3 OH2  OT           -0.834       15.9994       0
    7309 TIP3 2356 TIP3 H1   HT            0.417         1.008       0
    7310 TIP3 2356 TIP3 H2   HT            0.417         1.008       0
    7311 TIP3 2357 TIP3 OH2  OT           -0.834       15.9994       0
    7312 TIP3 2357 TIP3 H1   HT            0.417         1.008       0
    7313 TIP3 2357 TIP3 H2   HT            0.417         1.008       0
    7314 TIP3 2358 TIP3 OH2  OT           -0.834       15.9994       0
    7315 TIP3 2358 TIP3 H1   HT            0.417         1.008       0
    7316 TIP3 2358 TIP3 H2   HT            0.417         1.008       0
    7317 TIP3 2359 TIP3 OH2  OT           -0.834       15.9994       0
    7318 TIP3 2359 TIP3 H1   HT            0.417         1.008       0
    7319 TIP3 2359 TIP3 H2   HT            0.417         1.008       0
    7320 TIP3 2360 TIP3 OH2  OT           -0.834       15.9994       0
    7321 TIP3 2360 TIP3 H1   HT            0.417         1.008       0
    7322 TIP3 2360 TIP3 H2   HT            0.417         1.008       0
    7323 TIP3 2361 TIP3 OH2  OT           -0.834       15.9994       0
    7324 TIP3 2361 TIP3 H1   HT            0.417         1.008       0
    7325 TIP3 2361 TIP3 H2   HT            0.417         1.008       0
    7326 TIP3 2362 TIP3 OH2  OT           -0.834       15.9994       0
    7327 TIP3 2362 TIP3 H1   HT            0.417         1.008       0
    7328 TIP3 2362 TIP3 H2   HT            0.417         1.008       0
    7329 TIP3 2363 TIP3 OH2  OT           -0.834       15.9994       0
    7330 TIP3 2363 TIP3 H1   HT            0.417         1.008       0
    7331 TIP3 2363 TIP3 H2   HT            0.417         1.008       0
    7332 TIP3 2364 TIP3 OH2  OT           -0.834       15.9994       0
    7333 TIP3 2364 TIP3 H1   HT            0.417         1.008       0
    7334 TIP3 2364 TIP3 H2   HT            0.417         1.008       0
    7335 TIP3 2365 TIP3 OH2  OT           -0.834       15.9994       0
    7336 TIP3 2365 TIP3 H1   HT            0.417         1.008       0
    7337 TIP3 2365 TIP3 H2   HT            0.417         1.008       0
    7338 TIP3 2366 TIP3 OH2  OT           -0.834       15.9994       0
    7339 TIP3 2366 TIP3 H1   HT            0.417         1.008       0
    7340 TIP3 2366 TIP3 H2   HT            0.417         1.008       0
    7341 TIP3 2367 TIP3 OH2  OT           -0.834       15.9994       0
    7342 TIP3 2367 TIP3 H1   HT            0.417         1.008       0
    7343 TIP3 2367 TIP3 H2   HT            0.417         1.008       0
    7344 TIP3 2368 TIP3 OH2  OT           -0.834       15.9994       0
    7345 TIP3 2368 TIP3 H1   HT            0.417         1.008       0
    7346 TIP3 2368 TIP3 H2   HT            0.417         1.008       0
    7347 TIP3 2369 TIP3 OH2  OT           -0.834       15.9994       0
    7348 TIP3 2369 TIP3 H1   HT            0.417         1.008       0
    7349 TIP3 2369 TIP3 H2   HT            0.417         1.008       0
    7350 TIP3 2370 TIP3 OH2  OT           -0.834       15.9994       0
    7351 TIP3 2370 TIP3 H1   HT            0.417         1.008       0
    7352 TIP3 2370 TIP3 H2   HT            0.417         1.008       0
    7353 TIP3 2371 TIP3 OH2  OT           -0.834       15.9994       0
    7354 TIP3 2371 TIP3 H1   HT            0.417         1.008       0
    7355 TIP3 2371 TIP3 H2   HT            0.417         1.008       0
    7356 TIP3 2372 TIP3 OH2  OT           -0.834       15.9994       0
    7357 TIP3 2372 TIP3 H1   HT            0.417         1.008       0
    7358 TIP3 2372 TIP3 H2   HT            0.417         1.008       0
    7359 TIP3 2373 TIP3 OH2  OT           -0.834       15.9994       0
    7360 TIP3 2373 TIP3 H1   HT            0.417         1.008       0
    7361 TIP3 2373 TIP3 H2   HT            0.417         1.008       0
    7362 TIP3 2374 TIP3 OH2  OT           -0.834       15.9994       0
    7363 TIP3 2374 TIP3 H1   HT            0.417         1.008       0
    7364 TIP3 2374 TIP3 H2   HT            0.417         1.008       0
    7365 TIP3 2375 TIP3 OH2  OT           -0.834       15.9994       0
    7366 TIP3 2375 TIP3 H1   HT            0.417         1.008       0
    7367 TIP3 2375 TIP3 H2   HT            0.417         1.008       0
    7368 TIP3 2376 TIP3 OH2  OT           -0.834       15.9994       0
    7369 TIP3 2376 TIP3 H1   HT            0.417         1.008       0
    7370 TIP3 2376 TIP3 H2   HT            0.417         1.008       0
    7371 TIP3 2377 TIP3 OH2  OT           -0.834       15.9994       0
    7372 TIP3 2377 TIP3 H1   HT            0.417         1.008       0
    7373 TIP3 2377 TIP3 H2   HT            0.417         1.008       0
    7374 TIP3 2378 TIP3 OH2  OT           -0.834       15.9994       0
    7375 TIP3 2378 TIP3 H1   HT            0.417         1.008       0
    7376 TIP3 2378 TIP3 H2   HT            0.417         1.008       0
    7377 TIP3 2379 TIP3 OH2  OT           -0.834       15.9994       0
    7378 TIP3 2379 TIP3 H1   HT            0.417         1.008       0
    7379 TIP3 2379 TIP3 H2   HT            0.417         1.008       0
    7380 TIP3 2380 TIP3 OH2  OT           -0.834       15.9994       0
    7381 TIP3 2380 TIP3 H1   HT            0.417         1.008       0
    7382 TIP3 2380 TIP3 H2   HT            0.417         1.008       0
    7383 TIP3 2381 TIP3 OH2  OT           -0.834       15.9994       0
    7384 TIP3 2381 TIP3 H1   HT            0.417         1.008       0
    7385 TIP3 2381 TIP3 H2   HT            0.417         1.008       0
    7386 TIP3 2382 TIP3 OH2  OT           -0.834       15.9994       0
    7387 TIP3 2382 TIP3 H1   HT            0.417         1.008       0
    7388 TIP3 2382 TIP3 H2   HT            0.417         1.008       0
    7389 TIP3 2383 TIP3 OH2  OT           -0.834       15.9994       0
    7390 TIP3 2383 TIP3 H1   HT            0.417         1.008       0
    7391 TIP3 2383 TIP3 H2   HT            0.417         1.008       0
    7392 TIP3 2384 TIP3 OH2  OT           -0.834       15.9994       0
    7393 TIP3 2384 TIP3 H1   HT            0.417         1.008       0
    7394 TIP3 2384 TIP3 H2   HT            0.417         1.008       0
    7395 TIP3 2385 TIP3 OH2  OT           -0.834       15.9994       0
    7396 TIP3 2385 TIP3 H1   HT            0.417         1.008       0
    7397 TIP3 2385 TIP3 H2   HT            0.417         1.008       0
    7398 TIP3 2386 TIP3 OH2  OT           -0.834       15.9994       0
    7399 TIP3 2386 TIP3 H1   HT            0.417         1.008       0
    7400 TIP3 2386 TIP3 H2   HT            0.417         1.008       0
    7401 TIP3 2387 TIP3 OH2  OT           -0.834       15.9994       0
    7402 TIP3 2387 TIP3 H1   HT            0.417         1.008       0
    7403 TIP3 2387 TIP3 H2   HT            0.417         1.008       0
    7404 TIP3 2388 TIP3 OH2  OT           -0.834       15.9994       0
    7405 TIP3 2388 TIP3 H1   HT            0.417         1.008       0
    7406 TIP3 2388 TIP3 H2   HT            0.417         1.008       0
    7407 TIP3 2389 TIP3 OH2  OT           -0.834       15.9994       0
    7408 TIP3 2389 TIP3 H1   HT            0.417         1.008       0
    7409 TIP3 2389 TIP3 H2   HT            0.417         1.008       0
    7410 TIP3 2390 TIP3 OH2  OT           -0.834       15.9994       0
    7411 TIP3 2390 TIP3 H1   HT            0.417         1.008       0
    7412 TIP3 2390 TIP3 H2   HT            0.417         1.008       0
    7413 TIP3 2391 TIP3 OH2  OT           -0.834       15.9994       0
    7414 TIP3 2391 TIP3 H1   HT            0.417         1.008       0
    7415 TIP3 2391 TIP3 H2   HT            0.417         1.008       0
    7416 TIP3 2392 TIP3 OH2  OT           -0.834       15.9994       0
    7417 TIP3 2392 TIP3 H1   HT            0.417         1.008       0
    7418 TIP3 2392 TIP3 H2   HT            0.417         1.008       0
    7419 TIP3 2393 TIP3 OH2  OT           -0.834       15.9994       0
    7420 TIP3 2393 TIP3 H1   HT            0.417         1.008       0
    7421 TIP3 2393 TIP3 H2   HT            0.417         1.008       0
    7422 TIP3 2394 TIP3 OH2  OT           -0.834       15.9994       0
    7423 TIP3 2394 TIP3 H1   HT            0.417         1.008       0
    7424 TIP3 2394 TIP3 H2   HT            0.417         1.008       0
    7425 TIP3 2395 TIP3 OH2  OT           -0.834       15.9994       0
    7426 TIP3 2395 TIP3 H1   HT            0.417         1.008       0
    7427 TIP3 2395 TIP3 H2   HT            0.417         1.008       0
    7428 TIP3 2396 TIP3 OH2  OT           -0.834       15.9994       0
    7429 TIP3 2396 TIP3 H1   HT            0.417         1.008       0
    7430 TIP3 2396 TIP3 H2   HT            0.417         1.008       0
    7431 TIP3 2397 TIP3 OH2  OT           -0.834       15.9994       0
    7432 TIP3 2397 TIP3 H1   HT            0.417         1.008       0
    7433 TIP3 2397 TIP3 H2   HT            0.417         1.008       0
    7434 TIP3 2398 TIP3 OH2  OT           -0.834       15.9994       0
    7435 TIP3 2398 TIP3 H1   HT            0.417         1.008       0
    7436 TIP3 2398 TIP3 H2   HT            0.417         1.008       0
    7437 TIP3 2399 TIP3 OH2  OT           -0.834       15.9994       0
    7438 TIP3 2399 TIP3 H1   HT            0.417         1.008       0
    7439 TIP3 2399 TIP3 H2   HT            0.417         1.008       0
    7440 TIP3 2400 TIP3 OH2  OT           -0.834       15.9994       0
    7441 TIP3 2400 TIP3 H1   HT            0.417         1.008       0
    7442 TIP3 2400 TIP3 H2   HT            0.417         1.008       0
    7443 TIP3 2401 TIP3 OH2  OT           -0.834       15.9994       0
    7444 TIP3 2401 TIP3 H1   HT            0.417         1.008       0
    7445 TIP3 2401 TIP3 H2   HT            0.417         1.008       0
    7446 TIP3 2402 TIP3 OH2  OT           -0.834       15.9994       0
    7447 TIP3 2402 TIP3 H1   HT            0.417         1.008       0
    7448 TIP3 2402 TIP3 H2   HT            0.417         1.008       0
    7449 TIP3 2403 TIP3 OH2  OT           -0.834       15.9994       0
    7450 TIP3 2403 TIP3 H1   HT            0.417         1.008       0
    7451 TIP3 2403 TIP3 H2   HT            0.417         1.008       0
    7452 TIP3 2404 TIP3 OH2  OT           -0.834       15.9994       0
    7453 TIP3 2404 TIP3 H1   HT            0.417         1.008       0
    7454 TIP3 2404 TIP3 H2   HT            0.417         1.008       0
    7455 TIP3 2405 TIP3 OH2  OT           -0.834       15.9994       0
    7456 TIP3 2405 TIP3 H1   HT            0.417         1.008       0
    7457 TIP3 2405 TIP3 H2   HT            0.417         1.008       0
    7458 TIP3 2406 TIP3 OH2  OT           -0.834       15.9994       0
    7459 TIP3 2406 TIP3 H1   HT            0.417         1.008       0
    7460 TIP3 2406 TIP3 H2   HT            0.417         1.008       0
    7461 TIP3 2407 TIP3 OH2  OT           -0.834       15.9994       0
    7462 TIP3 2407 TIP3 H1   HT            0.417         1.008       0
    7463 TIP3 2407 TIP3 H2   HT            0.417         1.008       0
    7464 TIP3 2408 TIP3 OH2  OT           -0.834       15.9994       0
    7465 TIP3 2408 TIP3 H1   HT            0.417         1.008       0
    7466 TIP3 2408 TIP3 H2   HT            0.417         1.008       0
    7467 TIP3 2409 TIP3 OH2  OT           -0.834       15.9994       0
    7468 TIP3 2409 TIP3 H1   HT            0.417         1.008       0
    7469 TIP3 2409 TIP3 H2   HT            0.417         1.008       0
    7470 TIP3 2410 TIP3 OH2  OT           -0.834       15.9994       0
    7471 TIP3 2410 TIP3 H1   HT            0.417         1.008       0
    7472 TIP3 2410 TIP3 H2   HT            0.417         1.008       0
    7473 TIP3 2411 TIP3 OH2  OT           -0.834       15.9994       0
    7474 TIP3 2411 TIP3 H1   HT            0.417         1.008       0
    7475 TIP3 2411 TIP3 H2   HT            0.417         1.008       0
    7476 TIP3 2412 TIP3 OH2  OT           -0.834       15.9994       0
    7477 TIP3 2412 TIP3 H1   HT            0.417         1.008       0
    7478 TIP3 2412 TIP3 H2   HT            0.417         1.008       0
    7479 TIP3 2413 TIP3 OH2  OT           -0.834       15.9994       0
    7480 TIP3 2413 TIP3 H1   HT            0.417         1.008       0
    7481 TIP3 2413 TIP3 H2   HT            0.417         1.008       0
    7482 TIP3 2414 TIP3 OH2  OT           -0.834       15.9994       0
    7483 TIP3 2414 TIP3 H1   HT            0.417         1.008       0
    7484 TIP3 2414 TIP3 H2   HT            0.417         1.008       0
    7485 TIP3 2415 TIP3 OH2  OT           -0.834       15.9994       0
    7486 TIP3 2415 TIP3 H1   HT            0.417         1.008       0
    7487 TIP3 2415 TIP3 H2   HT            0.417         1.008       0
    7488 TIP3 2416 TIP3 OH2  OT           -0.834       15.9994       0
    7489 TIP3 2416 TIP3 H1   HT            0.417         1.008       0
    7490 TIP3 2416 TIP3 H2   HT            0.417         1.008       0
    7491 TIP3 2417 TIP3 OH2  OT           -0.834       15.9994       0
    7492 TIP3 2417 TIP3 H1   HT            0.417         1.008       0
    7493 TIP3 2417 TIP3 H2   HT            0.417         1.008       0
    7494 TIP3 2418 TIP3 OH2  OT           -0.834       15.9994       0
    7495 TIP3 2418 TIP3 H1   HT            0.417         1.008       0
    7496 TIP3 2418 TIP3 H2   HT            0.417         1.008       0
    7497 TIP3 2419 TIP3 OH2  OT           -0.834       15.9994       0
    7498 TIP3 2419 TIP3 H1   HT            0.417         1.008       0
    7499 TIP3 2419 TIP3 H2   HT            0.417         1.008       0
    7500 TIP3 2420 TIP3 OH2  OT           -0.834       15.9994       0
    7501 TIP3 2420 TIP3 H1   HT            0.417         1.008       0
    7502 TIP3 2420 TIP3 H2   HT            0.417         1.008       0
    7503 TIP3 2421 TIP3 OH2  OT           -0.834       15.9994       0
    7504 TIP3 2421 TIP3 H1   HT            0.417         1.008       0
    7505 TIP3 2421 TIP3 H2   HT            0.417         1.008       0
    7506 TIP3 2422 TIP3 OH2  OT           -0.834       15.9994       0
    7507 TIP3 2422 TIP3 H1   HT            0.417         1.008       0
    7508 TIP3 2422 TIP3 H2   HT            0.417         1.008       0
    7509 TIP3 2423 TIP3 OH2  OT           -0.834       15.9994       0
    7510 TIP3 2423 TIP3 H1   HT            0.417         1.008       0
    7511 TIP3 2423 TIP3 H2   HT            0.417         1.008       0
    7512 TIP3 2424 TIP3 OH2  OT           -0.834       15.9994       0
    7513 TIP3 2424 TIP3 H1   HT            0.417         1.008       0
    7514 TIP3 2424 TIP3 H2   HT            0.417         1.008       0
    7515 TIP3 2425 TIP3 OH2  OT           -0.834       15.9994       0
    7516 TIP3 2425 TIP3 H1   HT            0.417         1.008       0
    7517 TIP3 2425 TIP3 H2   HT            0.417         1.008       0
    7518 TIP3 2426 TIP3 OH2  OT           -0.834       15.9994       0
    7519 TIP3 2426 TIP3 H1   HT            0.417         1.008       0
    7520 TIP3 2426 TIP3 H2   HT            0.417         1.008       0
    7521 TIP3 2427 TIP3 OH2  OT           -0.834       15.9994       0
    7522 TIP3 2427 TIP3 H1   HT            0.417         1.008       0
    7523 TIP3 2427 TIP3 H2   HT            0.417         1.008       0
    7524 TIP3 2428 TIP3 OH2  OT           -0.834       15.9994       0
    7525 TIP3 2428 TIP3 H1   HT            0.417         1.008       0
    7526 TIP3 2428 TIP3 H2   HT            0.417         1.008       0
    7527 TIP3 2429 TIP3 OH2  OT           -0.834       15.9994       0
    7528 TIP3 2429 TIP3 H1   HT            0.417         1.008       0
    7529 TIP3 2429 TIP3 H2   HT            0.417         1.008       0
    7530 TIP3 2430 TIP3 OH2  OT           -0.834       15.9994       0
    7531 TIP3 2430 TIP3 H1   HT            0.417         1.008       0
    7532 TIP3 2430 TIP3 H2   HT            0.417         1.008       0
    7533 TIP3 2431 TIP3 OH2  OT           -0.834       15.9994       0
    7534 TIP3 2431 TIP3 H1   HT            0.417         1.008       0
    7535 TIP3 2431 TIP3 H2   HT            0.417         1.008       0
    7536 TIP3 2432 TIP3 OH2  OT           -0.834       15.9994       0
    7537 TIP3 2432 TIP3 H1   HT            0.417         1.008       0
    7538 TIP3 2432 TIP3 H2   HT            0.417         1.008       0
    7539 TIP3 2433 TIP3 OH2  OT           -0.834       15.9994       0
    7540 TIP3 2433 TIP3 H1   HT            0.417         1.008       0
    7541 TIP3 2433 TIP3 H2   HT            0.417         1.008       0
    7542 TIP3 2434 TIP3 OH2  OT           -0.834       15.9994       0
    7543 TIP3 2434 TIP3 H1   HT            0.417         1.008       0
    7544 TIP3 2434 TIP3 H2   HT            0.417         1.008       0
    7545 TIP3 2435 TIP3 OH2  OT           -0.834       15.9994       0
    7546 TIP3 2435 TIP3 H1   HT            0.417         1.008       0
    7547 TIP3 2435 TIP3 H2   HT            0.417         1.008       0
    7548 TIP3 2436 TIP3 OH2  OT           -0.834       15.9994       0
    7549 TIP3 2436 TIP3 H1   HT            0.417         1.008       0
    7550 TIP3 2436 TIP3 H2   HT            0.417         1.008       0
    7551 TIP3 2437 TIP3 OH2  OT           -0.834       15.9994       0
    7552 TIP3 2437 TIP3 H1   HT            0.417         1.008       0
    7553 TIP3 2437 TIP3 H2   HT            0.417         1.008       0
    7554 TIP3 2438 TIP3 OH2  OT           -0.834       15.9994       0
    7555 TIP3 2438 TIP3 H1   HT            0.417         1.008       0
    7556 TIP3 2438 TIP3 H2   HT            0.417         1.008       0
    7557 TIP3 2439 TIP3 OH2  OT           -0.834       15.9994       0
    7558 TIP3 2439 TIP3 H1   HT            0.417         1.008       0
    7559 TIP3 2439 TIP3 H2   HT            0.417         1.008       0
    7560 TIP3 2440 TIP3 OH2  OT           -0.834       15.9994       0
    7561 TIP3 2440 TIP3 H1   HT            0.417         1.008       0
    7562 TIP3 2440 TIP3 H2   HT            0.417         1.008       0
    7563 TIP3 2441 TIP3 OH2  OT           -0.834       15.9994       0
    7564 TIP3 2441 TIP3 H1   HT            0.417         1.008       0
    7565 TIP3 2441 TIP3 H2   HT            0.417         1.008       0
    7566 TIP3 2442 TIP3 OH2  OT           -0.834       15.9994       0
    7567 TIP3 2442 TIP3 H1   HT            0.417         1.008       0
    7568 TIP3 2442 TIP3 H2   HT            0.417         1.008       0
    7569 TIP3 2443 TIP3 OH2  OT           -0.834       15.9994       0
    7570 TIP3 2443 TIP3 H1   HT            0.417         1.008       0
    7571 TIP3 2443 TIP3 H2   HT            0.417         1.008       0
    7572 TIP3 2444 TIP3 OH2  OT           -0.834       15.9994       0
    7573 TIP3 2444 TIP3 H1   HT            0.417         1.008       0
    7574 TIP3 2444 TIP3 H2   HT            0.417         1.008       0
    7575 TIP3 2445 TIP3 OH2  OT           -0.834       15.9994       0
    7576 TIP3 2445 TIP3 H1   HT            0.417         1.008       0
    7577 TIP3 2445 TIP3 H2   HT            0.417         1.008       0
    7578 TIP3 2446 TIP3 OH2  OT           -0.834       15.9994       0
    7579 TIP3 2446 TIP3 H1   HT            0.417         1.008       0
    7580 TIP3 2446 TIP3 H2   HT            0.417         1.008       0
    7581 TIP3 2447 TIP3 OH2  OT           -0.834       15.9994       0
    7582 TIP3 2447 TIP3 H1   HT            0.417         1.008       0
    7583 TIP3 2447 TIP3 H2   HT            0.417         1.008       0
    7584 TIP3 2448 TIP3 OH2  OT           -0.834       15.9994       0
    7585 TIP3 2448 TIP3 H1   HT            0.417         1.008       0
    7586 TIP3 2448 TIP3 H2   HT            0.417         1.008       0
    7587 TIP3 2449 TIP3 OH2  OT           -0.834       15.9994       0
    7588 TIP3 2449 TIP3 H1   HT            0.417         1.008       0
    7589 TIP3 2449 TIP3 H2   HT            0.417         1.008       0
    7590 TIP3 2450 TIP3 OH2  OT           -0.834       15.9994       0
    7591 TIP3 2450 TIP3 H1   HT            0.417         1.008       0
    7592 TIP3 2450 TIP3 H2   HT            0.417         1.008       0
    7593 TIP3 2451 TIP3 OH2  OT           -0.834       15.9994       0
    7594 TIP3 2451 TIP3 H1   HT            0.417         1.008       0
    7595 TIP3 2451 TIP3 H2   HT            0.417         1.008       0
    7596 TIP3 2452 TIP3 OH2  OT           -0.834       15.9994       0
    7597 TIP3 2452 TIP3 H1   HT            0.417         1.008       0
    7598 TIP3 2452 TIP3 H2   HT            0.417         1.008       0
    7599 TIP3 2453 TIP3 OH2  OT           -0.834       15.9994       0
    7600 TIP3 2453 TIP3 H1   HT            0.417         1.008       0
    7601 TIP3 2453 TIP3 H2   HT            0.417         1.008       0
    7602 TIP3 2454 TIP3 OH2  OT           -0.834       15.9994       0
    7603 TIP3 2454 TIP3 H1   HT            0.417         1.008       0
    7604 TIP3 2454 TIP3 H2   HT            0.417         1.008       0
    7605 TIP3 2455 TIP3 OH2  OT           -0.834       15.9994       0
    7606 TIP3 2455 TIP3 H1   HT            0.417         1.008       0
    7607 TIP3 2455 TIP3 H2   HT            0.417         1.008       0
    7608 TIP3 2456 TIP3 OH2  OT           -0.834       15.9994       0
    7609 TIP3 2456 TIP3 H1   HT            0.417         1.008       0
    7610 TIP3 2456 TIP3 H2   HT            0.417         1.008       0
    7611 TIP3 2457 TIP3 OH2  OT           -0.834       15.9994       0
    7612 TIP3 2457 TIP3 H1   HT            0.417         1.008       0
    7613 TIP3 2457 TIP3 H2   HT            0.417         1.008       0
    7614 TIP3 2458 TIP3 OH2  OT           -0.834       15.9994       0
    7615 TIP3 2458 TIP3 H1   HT            0.417         1.008       0
    7616 TIP3 2458 TIP3 H2   HT            0.417         1.008       0
    7617 TIP3 2459 TIP3 OH2  OT           -0.834       15.9994       0
    7618 TIP3 2459 TIP3 H1   HT            0.417         1.008       0
    7619 TIP3 2459 TIP3 H2   HT            0.417         1.008       0
    7620 TIP3 2460 TIP3 OH2  OT           -0.834       15.9994       0
    7621 TIP3 2460 TIP3 H1   HT            0.417         1.008       0
    7622 TIP3 2460 TIP3 H2   HT            0.417         1.008       0
    7623 TIP3 2461 TIP3 OH2  OT           -0.834       15.9994       0
    7624 TIP3 2461 TIP3 H1   HT            0.417         1.008       0
    7625 TIP3 2461 TIP3 H2   HT            0.417         1.008       0
    7626 TIP3 2462 TIP3 OH2  OT           -0.834       15.9994       0
    7627 TIP3 2462 TIP3 H1   HT            0.417         1.008       0
    7628 TIP3 2462 TIP3 H2   HT            0.417         1.008       0
    7629 TIP3 2463 TIP3 OH2  OT           -0.834       15.9994       0
    7630 TIP3 2463 TIP3 H1   HT            0.417         1.008       0
    7631 TIP3 2463 TIP3 H2   HT            0.417         1.008       0
    7632 TIP3 2464 TIP3 OH2  OT           -0.834       15.9994       0
    7633 TIP3 2464 TIP3 H1   HT            0.417         1.008       0
    7634 TIP3 2464 TIP3 H2   HT            0.417         1.008       0
    7635 TIP3 2465 TIP3 OH2  OT           -0.834       15.9994       0
    7636 TIP3 2465 TIP3 H1   HT            0.417         1.008       0
    7637 TIP3 2465 TIP3 H2   HT            0.417         1.008       0
    7638 TIP3 2466 TIP3 OH2  OT           -0.834       15.9994       0
    7639 TIP3 2466 TIP3 H1   HT            0.417         1.008       0
    7640 TIP3 2466 TIP3 H2   HT            0.417         1.008       0
    7641 TIP3 2467 TIP3 OH2  OT           -0.834       15.9994       0
    7642 TIP3 2467 TIP3 H1   HT            0.417         1.008       0
    7643 TIP3 2467 TIP3 H2   HT            0.417         1.008       0
    7644 TIP3 2468 TIP3 OH2  OT           -0.834       15.9994       0
    7645 TIP3 2468 TIP3 H1   HT            0.417         1.008       0
    7646 TIP3 2468 TIP3 H2   HT            0.417         1.008       0
    7647 TIP3 2469 TIP3 OH2  OT           -0.834       15.9994       0
    7648 TIP3 2469 TIP3 H1   HT            0.417         1.008       0
    7649 TIP3 2469 TIP3 H2   HT            0.417         1.008       0
    7650 TIP3 2470 TIP3 OH2  OT           -0.834       15.9994       0
    7651 TIP3 2470 TIP3 H1   HT            0.417         1.008       0
    7652 TIP3 2470 TIP3 H2   HT            0.417         1.008       0
    7653 TIP3 2471 TIP3 OH2  OT           -0.834       15.9994       0
    7654 TIP3 2471 TIP3 H1   HT            0.417         1.008       0
    7655 TIP3 2471 TIP3 H2   HT            0.417         1.008       0
    7656 TIP3 2472 TIP3 OH2  OT           -0.834       15.9994       0
    7657 TIP3 2472 TIP3 H1   HT            0.417         1.008       0
    7658 TIP3 2472 TIP3 H2   HT            0.417         1.008       0
    7659 TIP3 2473 TIP3 OH2  OT           -0.834       15.9994       0
    7660 TIP3 2473 TIP3 H1   HT            0.417         1.008       0
    7661 TIP3 2473 TIP3 H2   HT            0.417         1.008       0
    7662 TIP3 2474 TIP3 OH2  OT           -0.834       15.9994       0
    7663 TIP3 2474 TIP3 H1   HT            0.417         1.008       0
    7664 TIP3 2474 TIP3 H2   HT            0.417         1.008       0
    7665 TIP3 2475 TIP3 OH2  OT           -0.834       15.9994       0
    7666 TIP3 2475 TIP3 H1   HT            0.417         1.008       0
    7667 TIP3 2475 TIP3 H2   HT            0.417         1.008       0
    7668 TIP3 2476 TIP3 OH2  OT           -0.834       15.9994       0
    7669 TIP3 2476 TIP3 H1   HT            0.417         1.008       0
    7670 TIP3 2476 TIP3 H2   HT            0.417         1.008       0
    7671 TIP3 2477 TIP3 OH2  OT           -0.834       15.9994       0
    7672 TIP3 2477 TIP3 H1   HT            0.417         1.008       0
    7673 TIP3 2477 TIP3 H2   HT            0.417         1.008       0
    7674 TIP3 2478 TIP3 OH2  OT           -0.834       15.9994       0
    7675 TIP3 2478 TIP3 H1   HT            0.417         1.008       0
    7676 TIP3 2478 TIP3 H2   HT            0.417         1.008       0
    7677 TIP3 2479 TIP3 OH2  OT           -0.834       15.9994       0
    7678 TIP3 2479 TIP3 H1   HT            0.417         1.008       0
    7679 TIP3 2479 TIP3 H2   HT            0.417         1.008       0
    7680 TIP3 2480 TIP3 OH2  OT           -0.834       15.9994       0
    7681 TIP3 2480 TIP3 H1   HT            0.417         1.008       0
    7682 TIP3 2480 TIP3 H2   HT            0.417         1.008       0
    7683 TIP3 2481 TIP3 OH2  OT           -0.834       15.9994       0
    7684 TIP3 2481 TIP3 H1   HT            0.417         1.008       0
    7685 TIP3 2481 TIP3 H2   HT            0.417         1.008       0
    7686 TIP3 2482 TIP3 OH2  OT           -0.834       15.9994       0
    7687 TIP3 2482 TIP3 H1   HT            0.417         1.008       0
    7688 TIP3 2482 TIP3 H2   HT            0.417         1.008       0
    7689 TIP3 2483 TIP3 OH2  OT           -0.834       15.9994       0
    7690 TIP3 2483 TIP3 H1   HT            0.417         1.008       0
    7691 TIP3 2483 TIP3 H2   HT            0.417         1.008       0
    7692 TIP3 2484 TIP3 OH2  OT           -0.834       15.9994       0
    7693 TIP3 2484 TIP3 H1   HT            0.417         1.008       0
    7694 TIP3 2484 TIP3 H2   HT            0.417         1.008       0
    7695 TIP3 2485 TIP3 OH2  OT           -0.834       15.9994       0
    7696 TIP3 2485 TIP3 H1   HT            0.417         1.008       0
    7697 TIP3 2485 TIP3 H2   HT            0.417         1.008       0
    7698 TIP3 2486 TIP3 OH2  OT           -0.834       15.9994       0
    7699 TIP3 2486 TIP3 H1   HT            0.417         1.008       0
    7700 TIP3 2486 TIP3 H2   HT            0.417         1.008       0
    7701 TIP3 2487 TIP3 OH2  OT           -0.834       15.9994       0
    7702 TIP3 2487 TIP3 H1   HT            0.417         1.008       0
    7703 TIP3 2487 TIP3 H2   HT            0.417         1.008       0
    7704 TIP3 2488 TIP3 OH2  OT           -0.834       15.9994       0
    7705 TIP3 2488 TIP3 H1   HT            0.417         1.008       0
    7706 TIP3 2488 TIP3 H2   HT            0.417         1.008       0
    7707 TIP3 2489 TIP3 OH2  OT           -0.834       15.9994       0
    7708 TIP3 2489 TIP3 H1   HT            0.417         1.008       0
    7709 TIP3 2489 TIP3 H2   HT            0.417         1.008       0
    7710 TIP3 2490 TIP3 OH2  OT           -0.834       15.9994       0
    7711 TIP3 2490 TIP3 H1   HT            0.417         1.008       0
    7712 TIP3 2490 TIP3 H2   HT            0.417         1.008       0
    7713 TIP3 2491 TIP3 OH2  OT           -0.834       15.9994       0
    7714 TIP3 2491 TIP3 H1   HT            0.417         1.008       0
    7715 TIP3 2491 TIP3 H2   HT            0.417         1.008       0
    7716 TIP3 2492 TIP3 OH2  OT           -0.834       15.9994       0
    7717 TIP3 2492 TIP3 H1   HT            0.417         1.008       0
    7718 TIP3 2492 TIP3 H2   HT            0.417         1.008       0
    7719 TIP3 2493 TIP3 OH2  OT           -0.834       15.9994       0
    7720 TIP3 2493 TIP3 H1   HT            0.417         1.008       0
    7721 TIP3 2493 TIP3 H2   HT            0.417         1.008       0
    7722 TIP3 2494 TIP3 OH2  OT           -0.834       15.9994       0
    7723 TIP3 2494 TIP3 H1   HT            0.417         1.008       0
    7724 TIP3 2494 TIP3 H2   HT            0.417         1.008       0
    7725 TIP3 2495 TIP3 OH2  OT           -0.834       15.9994       0
    7726 TIP3 2495 TIP3 H1   HT            0.417         1.008       0
    7727 TIP3 2495 TIP3 H2   HT            0.417         1.008       0
    7728 TIP3 2496 TIP3 OH2  OT           -0.834       15.9994       0
    7729 TIP3 2496 TIP3 H1   HT            0.417         1.008       0
    7730 TIP3 2496 TIP3 H2   HT            0.417         1.008       0
    7731 TIP3 2497 TIP3 OH2  OT           -0.834       15.9994       0
    7732 TIP3 2497 TIP3 H1   HT            0.417         1.008       0
    7733 TIP3 2497 TIP3 H2   HT            0.417         1.008       0
    7734 TIP3 2498 TIP3 OH2  OT           -0.834       15.9994       0
    7735 TIP3 2498 TIP3 H1   HT            0.417         1.008       0
    7736 TIP3 2498 TIP3 H2   HT            0.417         1.008       0
    7737 TIP3 2499 TIP3 OH2  OT           -0.834       15.9994       0
    7738 TIP3 2499 TIP3 H1   HT            0.417         1.008       0
    7739 TIP3 2499 TIP3 H2   HT            0.417         1.008       0
    7740 TIP3 2500 TIP3 OH2  OT           -0.834       15.9994       0
    7741 TIP3 2500 TIP3 H1   HT            0.417         1.008       0
    7742 TIP3 2500 TIP3 H2   HT            0.417         1.008       0
    7743 TIP3 2501 TIP3 OH2  OT           -0.834       15.9994       0
    7744 TIP3 2501 TIP3 H1   HT            0.417         1.008       0
    7745 TIP3 2501 TIP3 H2   HT            0.417         1.008       0
    7746 TIP3 2502 TIP3 OH2  OT           -0.834       15.9994       0
    7747 TIP3 2502 TIP3 H1   HT            0.417         1.008       0
    7748 TIP3 2502 TIP3 H2   HT            0.417         1.008       0
    7749 TIP3 2503 TIP3 OH2  OT           -0.834       15.9994       0
    7750 TIP3 2503 TIP3 H1   HT            0.417         1.008       0
    7751 TIP3 2503 TIP3 H2   HT            0.417         1.008       0
    7752 TIP3 2504 TIP3 OH2  OT           -0.834       15.9994       0
    7753 TIP3 2504 TIP3 H1   HT            0.417         1.008       0
    7754 TIP3 2504 TIP3 H2   HT            0.417         1.008       0
    7755 TIP3 2505 TIP3 OH2  OT           -0.834       15.9994       0
    7756 TIP3 2505 TIP3 H1   HT            0.417         1.008       0
    7757 TIP3 2505 TIP3 H2   HT            0.417         1.008       0
    7758 TIP3 2506 TIP3 OH2  OT           -0.834       15.9994       0
    7759 TIP3 2506 TIP3 H1   HT            0.417         1.008       0
    7760 TIP3 2506 TIP3 H2   HT            0.417         1.008       0
    7761 TIP3 2507 TIP3 OH2  OT           -0.834       15.9994       0
    7762 TIP3 2507 TIP3 H1   HT            0.417         1.008       0
    7763 TIP3 2507 TIP3 H2   HT            0.417         1.008       0
    7764 TIP3 2508 TIP3 OH2  OT           -0.834       15.9994       0
    7765 TIP3 2508 TIP3 H1   HT            0.417         1.008       0
    7766 TIP3 2508 TIP3 H2   HT            0.417         1.008       0
    7767 TIP3 2509 TIP3 OH2  OT           -0.834       15.9994       0
    7768 TIP3 2509 TIP3 H1   HT            0.417         1.008       0
    7769 TIP3 2509 TIP3 H2   HT            0.417         1.008       0
    7770 TIP3 2510 TIP3 OH2  OT           -0.834       15.9994       0
    7771 TIP3 2510 TIP3 H1   HT            0.417         1.008       0
    7772 TIP3 2510 TIP3 H2   HT            0.417         1.008       0
    7773 TIP3 2511 TIP3 OH2  OT           -0.834       15.9994       0
    7774 TIP3 2511 TIP3 H1   HT            0.417         1.008       0
    7775 TIP3 2511 TIP3 H2   HT            0.417         1.008       0
    7776 TIP3 2512 TIP3 OH2  OT           -0.834       15.9994       0
    7777 TIP3 2512 TIP3 H1   HT            0.417         1.008       0
    7778 TIP3 2512 TIP3 H2   HT            0.417         1.008       0
    7779 TIP3 2513 TIP3 OH2  OT           -0.834       15.9994       0
    7780 TIP3 2513 TIP3 H1   HT            0.417         1.008       0
    7781 TIP3 2513 TIP3 H2   HT            0.417         1.008       0
    7782 TIP3 2514 TIP3 OH2  OT           -0.834       15.9994       0
    7783 TIP3 2514 TIP3 H1   HT            0.417         1.008       0
    7784 TIP3 2514 TIP3 H2   HT            0.417         1.008       0
    7785 TIP3 2515 TIP3 OH2  OT           -0.834       15.9994       0
    7786 TIP3 2515 TIP3 H1   HT            0.417         1.008       0
    7787 TIP3 2515 TIP3 H2   HT            0.417         1.008       0
    7788 TIP3 2516 TIP3 OH2  OT           -0.834       15.9994       0
    7789 TIP3 2516 TIP3 H1   HT            0.417         1.008       0
    7790 TIP3 2516 TIP3 H2   HT            0.417         1.008       0
    7791 TIP3 2517 TIP3 OH2  OT           -0.834       15.9994       0
    7792 TIP3 2517 TIP3 H1   HT            0.417         1.008       0
    7793 TIP3 2517 TIP3 H2   HT            0.417         1.008       0
    7794 TIP3 2518 TIP3 OH2  OT           -0.834       15.9994       0
    7795 TIP3 2518 TIP3 H1   HT            0.417         1.008       0
    7796 TIP3 2518 TIP3 H2   HT            0.417         1.008       0
    7797 TIP3 2519 TIP3 OH2  OT           -0.834       15.9994       0
    7798 TIP3 2519 TIP3 H1   HT            0.417         1.008       0
    7799 TIP3 2519 TIP3 H2   HT            0.417         1.008       0
    7800 TIP3 2520 TIP3 OH2  OT           -0.834       15.9994       0
    7801 TIP3 2520 TIP3 H1   HT            0.417         1.008       0
    7802 TIP3 2520 TIP3 H2   HT            0.417         1.008       0
    7803 TIP3 2521 TIP3 OH2  OT           -0.834       15.9994       0
    7804 TIP3 2521 TIP3 H1   HT            0.417         1.008       0
    7805 TIP3 2521 TIP3 H2   HT            0.417         1.008       0
    7806 TIP3 2522 TIP3 OH2  OT           -0.834       15.9994       0
    7807 TIP3 2522 TIP3 H1   HT            0.417         1.008       0
    7808 TIP3 2522 TIP3 H2   HT            0.417         1.008       0
    7809 TIP3 2523 TIP3 OH2  OT           -0.834       15.9994       0
    7810 TIP3 2523 TIP3 H1   HT            0.417         1.008       0
    7811 TIP3 2523 TIP3 H2   HT            0.417         1.008       0
    7812 TIP3 2524 TIP3 OH2  OT           -0.834       15.9994       0
    7813 TIP3 2524 TIP3 H1   HT            0.417         1.008       0
    7814 TIP3 2524 TIP3 H2   HT            0.417         1.008       0
    7815 TIP3 2525 TIP3 OH2  OT           -0.834       15.9994       0
    7816 TIP3 2525 TIP3 H1   HT            0.417         1.008       0
    7817 TIP3 2525 TIP3 H2   HT            0.417         1.008       0
    7818 TIP3 2526 TIP3 OH2  OT           -0.834       15.9994       0
    7819 TIP3 2526 TIP3 H1   HT            0.417         1.008       0
    7820 TIP3 2526 TIP3 H2   HT            0.417         1.008       0
    7821 TIP3 2527 TIP3 OH2  OT           -0.834       15.9994       0
    7822 TIP3 2527 TIP3 H1   HT            0.417         1.008       0
    7823 TIP3 2527 TIP3 H2   HT            0.417         1.008       0
    7824 TIP3 2528 TIP3 OH2  OT           -0.834       15.9994       0
    7825 TIP3 2528 TIP3 H1   HT            0.417         1.008       0
    7826 TIP3 2528 TIP3 H2   HT            0.417         1.008       0
    7827 TIP3 2529 TIP3 OH2  OT           -0.834       15.9994       0
    7828 TIP3 2529 TIP3 H1   HT            0.417         1.008       0
    7829 TIP3 2529 TIP3 H2   HT            0.417         1.008       0
    7830 TIP3 2530 TIP3 OH2  OT           -0.834       15.9994       0
    7831 TIP3 2530 TIP3 H1   HT            0.417         1.008       0
    7832 TIP3 2530 TIP3 H2   HT            0.417         1.008       0
    7833 TIP3 2531 TIP3 OH2  OT           -0.834       15.9994       0
    7834 TIP3 2531 TIP3 H1   HT            0.417         1.008       0
    7835 TIP3 2531 TIP3 H2   HT            0.417         1.008       0
    7836 TIP3 2532 TIP3 OH2  OT           -0.834       15.9994       0
    7837 TIP3 2532 TIP3 H1   HT            0.417         1.008       0
    7838 TIP3 2532 TIP3 H2   HT            0.417         1.008       0
    7839 TIP3 2533 TIP3 OH2  OT           -0.834       15.9994       0
    7840 TIP3 2533 TIP3 H1   HT            0.417         1.008       0
    7841 TIP3 2533 TIP3 H2   HT            0.417         1.008       0
    7842 TIP3 2534 TIP3 OH2  OT           -0.834       15.9994       0
    7843 TIP3 2534 TIP3 H1   HT            0.417         1.008       0
    7844 TIP3 2534 TIP3 H2   HT            0.417         1.008       0
    7845 TIP3 2535 TIP3 OH2  OT           -0.834       15.9994       0
    7846 TIP3 2535 TIP3 H1   HT            0.417         1.008       0
    7847 TIP3 2535 TIP3 H2   HT            0.417         1.008       0
    7848 TIP3 2536 TIP3 OH2  OT           -0.834       15.9994       0
    7849 TIP3 2536 TIP3 H1   HT            0.417         1.008       0
    7850 TIP3 2536 TIP3 H2   HT            0.417         1.008       0
    7851 TIP3 2537 TIP3 OH2  OT           -0.834       15.9994       0
    7852 TIP3 2537 TIP3 H1   HT            0.417         1.008       0
    7853 TIP3 2537 TIP3 H2   HT            0.417         1.008       0
    7854 TIP3 2538 TIP3 OH2  OT           -0.834       15.9994       0
    7855 TIP3 2538 TIP3 H1   HT            0.417         1.008       0
    7856 TIP3 2538 TIP3 H2   HT            0.417         1.008       0
    7857 TIP3 2539 TIP3 OH2  OT           -0.834       15.9994       0
    7858 TIP3 2539 TIP3 H1   HT            0.417         1.008       0
    7859 TIP3 2539 TIP3 H2   HT            0.417         1.008       0
    7860 TIP3 2540 TIP3 OH2  OT           -0.834       15.9994       0
    7861 TIP3 2540 TIP3 H1   HT            0.417         1.008       0
    7862 TIP3 2540 TIP3 H2   HT            0.417         1.008       0
    7863 TIP3 2541 TIP3 OH2  OT           -0.834       15.9994       0
    7864 TIP3 2541 TIP3 H1   HT            0.417         1.008       0
    7865 TIP3 2541 TIP3 H2   HT            0.417         1.008       0
    7866 TIP3 2542 TIP3 OH2  OT           -0.834       15.9994       0
    7867 TIP3 2542 TIP3 H1   HT            0.417         1.008       0
    7868 TIP3 2542 TIP3 H2   HT            0.417         1.008       0
    7869 TIP3 2543 TIP3 OH2  OT           -0.834       15.9994       0
    7870 TIP3 2543 TIP3 H1   HT            0.417         1.008       0
    7871 TIP3 2543 TIP3 H2   HT            0.417         1.008       0
    7872 TIP3 2544 TIP3 OH2  OT           -0.834       15.9994       0
    7873 TIP3 2544 TIP3 H1   HT            0.417         1.008       0
    7874 TIP3 2544 TIP3 H2   HT            0.417         1.008       0
    7875 TIP3 2545 TIP3 OH2  OT           -0.834       15.9994       0
    7876 TIP3 2545 TIP3 H1   HT            0.417         1.008       0
    7877 TIP3 2545 TIP3 H2   HT            0.417         1.008       0
    7878 TIP3 2546 TIP3 OH2  OT           -0.834       15.9994       0
    7879 TIP3 2546 TIP3 H1   HT            0.417         1.008       0
    7880 TIP3 2546 TIP3 H2   HT            0.417         1.008       0
    7881 TIP3 2547 TIP3 OH2  OT           -0.834       15.9994       0
    7882 TIP3 2547 TIP3 H1   HT            0.417         1.008       0
    7883 TIP3 2547 TIP3 H2   HT            0.417         1.008       0
    7884 TIP3 2548 TIP3 OH2  OT           -0.834       15.9994       0
    7885 TIP3 2548 TIP3 H1   HT            0.417         1.008       0
    7886 TIP3 2548 TIP3 H2   HT            0.417         1.008       0
    7887 TIP3 2549 TIP3 OH2  OT           -0.834       15.9994       0
    7888 TIP3 2549 TIP3 H1   HT            0.417         1.008       0
    7889 TIP3 2549 TIP3 H2   HT            0.417         1.008       0
    7890 TIP3 2550 TIP3 OH2  OT           -0.834       15.9994       0
    7891 TIP3 2550 TIP3 H1   HT            0.417         1.008       0
    7892 TIP3 2550 TIP3 H2   HT            0.417         1.008       0
    7893 TIP3 2551 TIP3 OH2  OT           -0.834       15.9994       0
    7894 TIP3 2551 TIP3 H1   HT            0.417         1.008       0
    7895 TIP3 2551 TIP3 H2   HT            0.417         1.008       0
    7896 TIP3 2552 TIP3 OH2  OT           -0.834       15.9994       0
    7897 TIP3 2552 TIP3 H1   HT            0.417         1.008       0
    7898 TIP3 2552 TIP3 H2   HT            0.417         1.008       0
    7899 TIP3 2553 TIP3 OH2  OT           -0.834       15.9994       0
    7900 TIP3 2553 TIP3 H1   HT            0.417         1.008       0
    7901 TIP3 2553 TIP3 H2   HT            0.417         1.008       0
    7902 TIP3 2554 TIP3 OH2  OT           -0.834       15.9994       0
    7903 TIP3 2554 TIP3 H1   HT            0.417         1.008       0
    7904 TIP3 2554 TIP3 H2   HT            0.417         1.008       0
    7905 TIP3 2555 TIP3 OH2  OT           -0.834       15.9994       0
    7906 TIP3 2555 TIP3 H1   HT            0.417         1.008       0
    7907 TIP3 2555 TIP3 H2   HT            0.417         1.008       0
    7908 TIP3 2556 TIP3 OH2  OT           -0.834       15.9994       0
    7909 TIP3 2556 TIP3 H1   HT            0.417         1.008       0
    7910 TIP3 2556 TIP3 H2   HT            0.417         1.008       0
    7911 TIP3 2557 TIP3 OH2  OT           -0.834       15.9994       0
    7912 TIP3 2557 TIP3 H1   HT            0.417         1.008       0
    7913 TIP3 2557 TIP3 H2   HT            0.417         1.008       0
    7914 TIP3 2558 TIP3 OH2  OT           -0.834       15.9994       0
    7915 TIP3 2558 TIP3 H1   HT            0.417         1.008       0
    7916 TIP3 2558 TIP3 H2   HT            0.417         1.008       0
    7917 TIP3 2559 TIP3 OH2  OT           -0.834       15.9994       0
    7918 TIP3 2559 TIP3 H1   HT            0.417         1.008       0
    7919 TIP3 2559 TIP3 H2   HT            0.417         1.008       0
    7920 TIP3 2560 TIP3 OH2  OT           -0.834       15.9994       0
    7921 TIP3 2560 TIP3 H1   HT            0.417         1.008       0
    7922 TIP3 2560 TIP3 H2   HT            0.417         1.008       0
    7923 TIP3 2561 TIP3 OH2  OT           -0.834       15.9994       0
    7924 TIP3 2561 TIP3 H1   HT            0.417         1.008       0
    7925 TIP3 2561 TIP3 H2   HT            0.417         1.008       0
    7926 TIP3 2562 TIP3 OH2  OT           -0.834       15.9994       0
    7927 TIP3 2562 TIP3 H1   HT            0.417         1.008       0
    7928 TIP3 2562 TIP3 H2   HT            0.417         1.008       0
    7929 TIP3 2563 TIP3 OH2  OT           -0.834       15.9994       0
    7930 TIP3 2563 TIP3 H1   HT            0.417         1.008       0
    7931 TIP3 2563 TIP3 H2   HT            0.417         1.008       0
    7932 TIP3 2564 TIP3 OH2  OT           -0.834       15.9994       0
    7933 TIP3 2564 TIP3 H1   HT            0.417         1.008       0
    7934 TIP3 2564 TIP3 H2   HT            0.417         1.008       0
    7935 TIP3 2565 TIP3 OH2  OT           -0.834       15.9994       0
    7936 TIP3 2565 TIP3 H1   HT            0.417         1.008       0
    7937 TIP3 2565 TIP3 H2   HT            0.417         1.008       0
    7938 TIP3 2566 TIP3 OH2  OT           -0.834       15.9994       0
    7939 TIP3 2566 TIP3 H1   HT            0.417         1.008       0
    7940 TIP3 2566 TIP3 H2   HT            0.417         1.008       0
    7941 TIP3 2567 TIP3 OH2  OT           -0.834       15.9994       0
    7942 TIP3 2567 TIP3 H1   HT            0.417         1.008       0
    7943 TIP3 2567 TIP3 H2   HT            0.417         1.008       0
    7944 TIP3 2568 TIP3 OH2  OT           -0.834       15.9994       0
    7945 TIP3 2568 TIP3 H1   HT            0.417         1.008       0
    7946 TIP3 2568 TIP3 H2   HT            0.417         1.008       0
    7947 TIP3 2569 TIP3 OH2  OT           -0.834       15.9994       0
    7948 TIP3 2569 TIP3 H1   HT            0.417         1.008       0
    7949 TIP3 2569 TIP3 H2   HT            0.417         1.008       0
    7950 TIP3 2570 TIP3 OH2  OT           -0.834       15.9994       0
    7951 TIP3 2570 TIP3 H1   HT            0.417         1.008       0
    7952 TIP3 2570 TIP3 H2   HT            0.417         1.008       0
    7953 TIP3 2571 TIP3 OH2  OT           -0.834       15.9994       0
    7954 TIP3 2571 TIP3 H1   HT            0.417         1.008       0
    7955 TIP3 2571 TIP3 H2   HT            0.417         1.008       0
    7956 TIP3 2572 TIP3 OH2  OT           -0.834       15.9994       0
    7957 TIP3 2572 TIP3 H1   HT            0.417         1.008       0
    7958 TIP3 2572 TIP3 H2   HT            0.417         1.008       0
    7959 TIP3 2573 TIP3 OH2  OT           -0.834       15.9994       0
    7960 TIP3 2573 TIP3 H1   HT            0.417         1.008       0
    7961 TIP3 2573 TIP3 H2   HT            0.417         1.008       0
    7962 TIP3 2574 TIP3 OH2  OT           -0.834       15.9994       0
    7963 TIP3 2574 TIP3 H1   HT            0.417         1.008       0
    7964 TIP3 2574 TIP3 H2   HT            0.417         1.008       0
    7965 TIP3 2575 TIP3 OH2  OT           -0.834       15.9994       0
    7966 TIP3 2575 TIP3 H1   HT            0.417         1.008       0
    7967 TIP3 2575 TIP3 H2   HT            0.417         1.008       0
    7968 TIP3 2576 TIP3 OH2  OT           -0.834       15.9994       0
    7969 TIP3 2576 TIP3 H1   HT            0.417         1.008       0
    7970 TIP3 2576 TIP3 H2   HT            0.417         1.008       0
    7971 TIP3 2577 TIP3 OH2  OT           -0.834       15.9994       0
    7972 TIP3 2577 TIP3 H1   HT            0.417         1.008       0
    7973 TIP3 2577 TIP3 H2   HT            0.417         1.008       0
    7974 TIP3 2578 TIP3 OH2  OT           -0.834       15.9994       0
    7975 TIP3 2578 TIP3 H1   HT            0.417         1.008       0
    7976 TIP3 2578 TIP3 H2   HT            0.417         1.008       0
    7977 TIP3 2579 TIP3 OH2  OT           -0.834       15.9994       0
    7978 TIP3 2579 TIP3 H1   HT            0.417         1.008       0
    7979 TIP3 2579 TIP3 H2   HT            0.417         1.008       0
    7980 TIP3 2580 TIP3 OH2  OT           -0.834       15.9994       0
    7981 TIP3 2580 TIP3 H1   HT            0.417         1.008       0
    7982 TIP3 2580 TIP3 H2   HT            0.417         1.008       0
    7983 TIP3 2581 TIP3 OH2  OT           -0.834       15.9994       0
    7984 TIP3 2581 TIP3 H1   HT            0.417         1.008       0
    7985 TIP3 2581 TIP3 H2   HT            0.417         1.008       0
    7986 TIP3 2582 TIP3 OH2  OT           -0.834       15.9994       0
    7987 TIP3 2582 TIP3 H1   HT            0.417         1.008       0
    7988 TIP3 2582 TIP3 H2   HT            0.417         1.008       0
    7989 TIP3 2583 TIP3 OH2  OT           -0.834       15.9994       0
    7990 TIP3 2583 TIP3 H1   HT            0.417         1.008       0
    7991 TIP3 2583 TIP3 H2   HT            0.417         1.008       0
    7992 TIP3 2584 TIP3 OH2  OT           -0.834       15.9994       0
    7993 TIP3 2584 TIP3 H1   HT            0.417         1.008       0
    7994 TIP3 2584 TIP3 H2   HT            0.417         1.008       0
    7995 TIP3 2585 TIP3 OH2  OT           -0.834       15.9994       0
    7996 TIP3 2585 TIP3 H1   HT            0.417         1.008       0
    7997 TIP3 2585 TIP3 H2   HT            0.417         1.008       0
    7998 TIP3 2586 TIP3 OH2  OT           -0.834       15.9994       0
    7999 TIP3 2586 TIP3 H1   HT            0.417         1.008       0
    8000 TIP3 2586 TIP3 H2   HT            0.417         1.008       0
    8001 TIP3 2587 TIP3 OH2  OT           -0.834       15.9994       0
    8002 TIP3 2587 TIP3 H1   HT            0.417         1.008       0
    8003 TIP3 2587 TIP3 H2   HT            0.417         1.008       0
    8004 TIP3 2588 TIP3 OH2  OT           -0.834       15.9994       0
    8005 TIP3 2588 TIP3 H1   HT            0.417         1.008       0
    8006 TIP3 2588 TIP3 H2   HT            0.417         1.008       0
    8007 TIP3 2589 TIP3 OH2  OT           -0.834       15.9994       0
    8008 TIP3 2589 TIP3 H1   HT            0.417         1.008       0
    8009 TIP3 2589 TIP3 H2   HT            0.417         1.008       0
    8010 TIP3 2590 TIP3 OH2  OT           -0.834       15.9994       0
    8011 TIP3 2590 TIP3 H1   HT            0.417         1.008       0
    8012 TIP3 2590 TIP3 H2   HT            0.417         1.008       0
    8013 TIP3 2591 TIP3 OH2  OT           -0.834       15.9994       0
    8014 TIP3 2591 TIP3 H1   HT            0.417         1.008       0
    8015 TIP3 2591 TIP3 H2   HT            0.417         1.008       0
    8016 TIP3 2592 TIP3 OH2  OT           -0.834       15.9994       0
    8017 TIP3 2592 TIP3 H1   HT            0.417         1.008       0
    8018 TIP3 2592 TIP3 H2   HT            0.417         1.008       0
    8019 TIP3 2593 TIP3 OH2  OT           -0.834       15.9994       0
    8020 TIP3 2593 TIP3 H1   HT            0.417         1.008       0
    8021 TIP3 2593 TIP3 H2   HT            0.417         1.008       0
    8022 TIP3 2594 TIP3 OH2  OT           -0.834       15.9994       0
    8023 TIP3 2594 TIP3 H1   HT            0.417         1.008       0
    8024 TIP3 2594 TIP3 H2   HT            0.417         1.008       0
    8025 TIP3 2595 TIP3 OH2  OT           -0.834       15.9994       0
    8026 TIP3 2595 TIP3 H1   HT            0.417         1.008       0
    8027 TIP3 2595 TIP3 H2   HT            0.417         1.008       0
    8028 TIP3 2596 TIP3 OH2  OT           -0.834       15.9994       0
    8029 TIP3 2596 TIP3 H1   HT            0.417         1.008       0
    8030 TIP3 2596 TIP3 H2   HT            0.417         1.008       0
    8031 TIP3 2597 TIP3 OH2  OT           -0.834       15.9994       0
    8032 TIP3 2597 TIP3 H1   HT            0.417         1.008       0
    8033 TIP3 2597 TIP3 H2   HT            0.417         1.008       0
    8034 TIP3 2598 TIP3 OH2  OT           -0.834       15.9994       0
    8035 TIP3 2598 TIP3 H1   HT            0.417         1.008       0
    8036 TIP3 2598 TIP3 H2   HT            0.417         1.008       0
    8037 TIP3 2599 TIP3 OH2  OT           -0.834       15.9994       0
    8038 TIP3 2599 TIP3 H1   HT            0.417         1.008       0
    8039 TIP3 2599 TIP3 H2   HT            0.417         1.008       0
    8040 TIP3 2600 TIP3 OH2  OT           -0.834       15.9994       0
    8041 TIP3 2600 TIP3 H1   HT            0.417         1.008       0
    8042 TIP3 2600 TIP3 H2   HT            0.417         1.008       0
    8043 TIP3 2601 TIP3 OH2  OT           -0.834       15.9994       0
    8044 TIP3 2601 TIP3 H1   HT            0.417         1.008       0
    8045 TIP3 2601 TIP3 H2   HT            0.417         1.008       0
    8046 TIP3 2602 TIP3 OH2  OT           -0.834       15.9994       0
    8047 TIP3 2602 TIP3 H1   HT            0.417         1.008       0
    8048 TIP3 2602 TIP3 H2   HT            0.417         1.008       0
    8049 TIP3 2603 TIP3 OH2  OT           -0.834       15.9994       0
    8050 TIP3 2603 TIP3 H1   HT            0.417         1.008       0
    8051 TIP3 2603 TIP3 H2   HT            0.417         1.008       0
    8052 TIP3 2604 TIP3 OH2  OT           -0.834       15.9994       0
    8053 TIP3 2604 TIP3 H1   HT            0.417         1.008       0
    8054 TIP3 2604 TIP3 H2   HT            0.417         1.008       0
    8055 TIP3 2605 TIP3 OH2  OT           -0.834       15.9994       0
    8056 TIP3 2605 TIP3 H1   HT            0.417         1.008       0
    8057 TIP3 2605 TIP3 H2   HT            0.417         1.008       0
    8058 TIP3 2606 TIP3 OH2  OT           -0.834       15.9994       0
    8059 TIP3 2606 TIP3 H1   HT            0.417         1.008       0
    8060 TIP3 2606 TIP3 H2   HT            0.417         1.008       0
    8061 TIP3 2607 TIP3 OH2  OT           -0.834       15.9994       0
    8062 TIP3 2607 TIP3 H1   HT            0.417         1.008       0
    8063 TIP3 2607 TIP3 H2   HT            0.417         1.008       0
    8064 TIP3 2608 TIP3 OH2  OT           -0.834       15.9994       0
    8065 TIP3 2608 TIP3 H1   HT            0.417         1.008       0
    8066 TIP3 2608 TIP3 H2   HT            0.417         1.008       0
    8067 TIP3 2609 TIP3 OH2  OT           -0.834       15.9994       0
    8068 TIP3 2609 TIP3 H1   HT            0.417         1.008       0
    8069 TIP3 2609 TIP3 H2   HT            0.417         1.008       0
    8070 TIP3 2610 TIP3 OH2  OT           -0.834       15.9994       0
    8071 TIP3 2610 TIP3 H1   HT            0.417         1.008       0
    8072 TIP3 2610 TIP3 H2   HT            0.417         1.008       0
    8073 TIP3 2611 TIP3 OH2  OT           -0.834       15.9994       0
    8074 TIP3 2611 TIP3 H1   HT            0.417         1.008       0
    8075 TIP3 2611 TIP3 H2   HT            0.417         1.008       0
    8076 TIP3 2612 TIP3 OH2  OT           -0.834       15.9994       0
    8077 TIP3 2612 TIP3 H1   HT            0.417         1.008       0
    8078 TIP3 2612 TIP3 H2   HT            0.417         1.008       0
    8079 TIP3 2613 TIP3 OH2  OT           -0.834       15.9994       0
    8080 TIP3 2613 TIP3 H1   HT            0.417         1.008       0
    8081 TIP3 2613 TIP3 H2   HT            0.417         1.008       0
    8082 TIP3 2614 TIP3 OH2  OT           -0.834       15.9994       0
    8083 TIP3 2614 TIP3 H1   HT            0.417         1.008       0
    8084 TIP3 2614 TIP3 H2   HT            0.417         1.008       0
    8085 TIP3 2615 TIP3 OH2  OT           -0.834       15.9994       0
    8086 TIP3 2615 TIP3 H1   HT            0.417         1.008       0
    8087 TIP3 2615 TIP3 H2   HT            0.417         1.008       0
    8088 TIP3 2616 TIP3 OH2  OT           -0.834       15.9994       0
    8089 TIP3 2616 TIP3 H1   HT            0.417         1.008       0
    8090 TIP3 2616 TIP3 H2   HT            0.417         1.008       0
    8091 TIP3 2617 TIP3 OH2  OT           -0.834       15.9994       0
    8092 TIP3 2617 TIP3 H1   HT            0.417         1.008       0
    8093 TIP3 2617 TIP3 H2   HT            0.417         1.008       0
    8094 TIP3 2618 TIP3 OH2  OT           -0.834       15.9994       0
    8095 TIP3 2618 TIP3 H1   HT            0.417         1.008       0
    8096 TIP3 2618 TIP3 H2   HT            0.417         1.008       0
    8097 TIP3 2619 TIP3 OH2  OT           -0.834       15.9994       0
    8098 TIP3 2619 TIP3 H1   HT            0.417         1.008       0
    8099 TIP3 2619 TIP3 H2   HT            0.417         1.008       0
    8100 TIP3 2620 TIP3 OH2  OT           -0.834       15.9994       0
    8101 TIP3 2620 TIP3 H1   HT            0.417         1.008       0
    8102 TIP3 2620 TIP3 H2   HT            0.417         1.008       0
    8103 TIP3 2621 TIP3 OH2  OT           -0.834       15.9994       0
    8104 TIP3 2621 TIP3 H1   HT            0.417         1.008       0
    8105 TIP3 2621 TIP3 H2   HT            0.417         1.008       0
    8106 TIP3 2622 TIP3 OH2  OT           -0.834       15.9994       0
    8107 TIP3 2622 TIP3 H1   HT            0.417         1.008       0
    8108 TIP3 2622 TIP3 H2   HT            0.417         1.008       0
    8109 TIP3 2623 TIP3 OH2  OT           -0.834       15.9994       0
    8110 TIP3 2623 TIP3 H1   HT            0.417         1.008       0
    8111 TIP3 2623 TIP3 H2   HT            0.417         1.008       0
    8112 TIP3 2624 TIP3 OH2  OT           -0.834       15.9994       0
    8113 TIP3 2624 TIP3 H1   HT            0.417         1.008       0
    8114 TIP3 2624 TIP3 H2   HT            0.417         1.008       0
    8115 TIP3 2625 TIP3 OH2  OT           -0.834       15.9994       0
    8116 TIP3 2625 TIP3 H1   HT            0.417         1.008       0
    8117 TIP3 2625 TIP3 H2   HT            0.417         1.008       0
    8118 TIP3 2626 TIP3 OH2  OT           -0.834       15.9994       0
    8119 TIP3 2626 TIP3 H1   HT            0.417         1.008       0
    8120 TIP3 2626 TIP3 H2   HT            0.417         1.008       0
    8121 TIP3 2627 TIP3 OH2  OT           -0.834       15.9994       0
    8122 TIP3 2627 TIP3 H1   HT            0.417         1.008       0
    8123 TIP3 2627 TIP3 H2   HT            0.417         1.008       0
    8124 TIP3 2628 TIP3 OH2  OT           -0.834       15.9994       0
    8125 TIP3 2628 TIP3 H1   HT            0.417         1.008       0
    8126 TIP3 2628 TIP3 H2   HT            0.417         1.008       0
    8127 TIP3 2629 TIP3 OH2  OT           -0.834       15.9994       0
    8128 TIP3 2629 TIP3 H1   HT            0.417         1.008       0
    8129 TIP3 2629 TIP3 H2   HT            0.417         1.008       0
    8130 TIP3 2630 TIP3 OH2  OT           -0.834       15.9994       0
    8131 TIP3 2630 TIP3 H1   HT            0.417         1.008       0
    8132 TIP3 2630 TIP3 H2   HT            0.417         1.008       0
    8133 TIP3 2631 TIP3 OH2  OT           -0.834       15.9994       0
    8134 TIP3 2631 TIP3 H1   HT            0.417         1.008       0
    8135 TIP3 2631 TIP3 H2   HT            0.417         1.008       0
    8136 TIP3 2632 TIP3 OH2  OT           -0.834       15.9994       0
    8137 TIP3 2632 TIP3 H1   HT            0.417         1.008       0
    8138 TIP3 2632 TIP3 H2   HT            0.417         1.008       0
    8139 TIP3 2633 TIP3 OH2  OT           -0.834       15.9994       0
    8140 TIP3 2633 TIP3 H1   HT            0.417         1.008       0
    8141 TIP3 2633 TIP3 H2   HT            0.417         1.008       0
    8142 TIP3 2634 TIP3 OH2  OT           -0.834       15.9994       0
    8143 TIP3 2634 TIP3 H1   HT            0.417         1.008       0
    8144 TIP3 2634 TIP3 H2   HT            0.417         1.008       0
    8145 TIP3 2635 TIP3 OH2  OT           -0.834       15.9994       0
    8146 TIP3 2635 TIP3 H1   HT            0.417         1.008       0
    8147 TIP3 2635 TIP3 H2   HT            0.417         1.008       0
    8148 TIP3 2636 TIP3 OH2  OT           -0.834       15.9994       0
    8149 TIP3 2636 TIP3 H1   HT            0.417         1.008       0
    8150 TIP3 2636 TIP3 H2   HT            0.417         1.008       0
    8151 TIP3 2637 TIP3 OH2  OT           -0.834       15.9994       0
    8152 TIP3 2637 TIP3 H1   HT            0.417         1.008       0
    8153 TIP3 2637 TIP3 H2   HT            0.417         1.008       0
    8154 TIP3 2638 TIP3 OH2  OT           -0.834       15.9994       0
    8155 TIP3 2638 TIP3 H1   HT            0.417         1.008       0
    8156 TIP3 2638 TIP3 H2   HT            0.417         1.008       0
    8157 TIP3 2639 TIP3 OH2  OT           -0.834       15.9994       0
    8158 TIP3 2639 TIP3 H1   HT            0.417         1.008       0
    8159 TIP3 2639 TIP3 H2   HT            0.417         1.008       0
    8160 TIP3 2640 TIP3 OH2  OT           -0.834       15.9994       0
    8161 TIP3 2640 TIP3 H1   HT            0.417         1.008       0
    8162 TIP3 2640 TIP3 H2   HT            0.417         1.008       0
    8163 TIP3 2641 TIP3 OH2  OT           -0.834       15.9994       0
    8164 TIP3 2641 TIP3 H1   HT            0.417         1.008       0
    8165 TIP3 2641 TIP3 H2   HT            0.417         1.008       0
    8166 TIP3 2642 TIP3 OH2  OT           -0.834       15.9994       0
    8167 TIP3 2642 TIP3 H1   HT            0.417         1.008       0
    8168 TIP3 2642 TIP3 H2   HT            0.417         1.008       0
    8169 TIP3 2643 TIP3 OH2  OT           -0.834       15.9994       0
    8170 TIP3 2643 TIP3 H1   HT            0.417         1.008       0
    8171 TIP3 2643 TIP3 H2   HT            0.417         1.008       0
    8172 TIP3 2644 TIP3 OH2  OT           -0.834       15.9994       0
    8173 TIP3 2644 TIP3 H1   HT            0.417         1.008       0
    8174 TIP3 2644 TIP3 H2   HT            0.417         1.008       0
    8175 TIP3 2645 TIP3 OH2  OT           -0.834       15.9994       0
    8176 TIP3 2645 TIP3 H1   HT            0.417         1.008       0
    8177 TIP3 2645 TIP3 H2   HT            0.417         1.008       0
    8178 TIP3 2646 TIP3 OH2  OT           -0.834       15.9994       0
    8179 TIP3 2646 TIP3 H1   HT            0.417         1.008       0
    8180 TIP3 2646 TIP3 H2   HT            0.417         1.008       0
    8181 TIP3 2647 TIP3 OH2  OT           -0.834       15.9994       0
    8182 TIP3 2647 TIP3 H1   HT            0.417         1.008       0
    8183 TIP3 2647 TIP3 H2   HT            0.417         1.008       0
    8184 TIP3 2648 TIP3 OH2  OT           -0.834       15.9994       0
    8185 TIP3 2648 TIP3 H1   HT            0.417         1.008       0
    8186 TIP3 2648 TIP3 H2   HT            0.417         1.008       0
    8187 TIP3 2649 TIP3 OH2  OT           -0.834       15.9994       0
    8188 TIP3 2649 TIP3 H1   HT            0.417         1.008       0
    8189 TIP3 2649 TIP3 H2   HT            0.417         1.008       0
    8190 TIP3 2650 TIP3 OH2  OT           -0.834       15.9994       0
    8191 TIP3 2650 TIP3 H1   HT            0.417         1.008       0
    8192 TIP3 2650 TIP3 H2   HT            0.417         1.008       0
    8193 TIP3 2651 TIP3 OH2  OT           -0.834       15.9994       0
    8194 TIP3 2651 TIP3 H1   HT            0.417         1.008       0
    8195 TIP3 2651 TIP3 H2   HT            0.417         1.008       0
    8196 TIP3 2652 TIP3 OH2  OT           -0.834       15.9994       0
    8197 TIP3 2652 TIP3 H1   HT            0.417         1.008       0
    8198 TIP3 2652 TIP3 H2   HT            0.417         1.008       0
    8199 TIP3 2653 TIP3 OH2  OT           -0.834       15.9994       0
    8200 TIP3 2653 TIP3 H1   HT            0.417         1.008       0
    8201 TIP3 2653 TIP3 H2   HT            0.417         1.008       0
    8202 TIP3 2654 TIP3 OH2  OT           -0.834       15.9994       0
    8203 TIP3 2654 TIP3 H1   HT            0.417         1.008       0
    8204 TIP3 2654 TIP3 H2   HT            0.417         1.008       0
    8205 TIP3 2655 TIP3 OH2  OT           -0.834       15.9994       0
    8206 TIP3 2655 TIP3 H1   HT            0.417         1.008       0
    8207 TIP3 2655 TIP3 H2   HT            0.417         1.008       0
    8208 TIP3 2656 TIP3 OH2  OT           -0.834       15.9994       0
    8209 TIP3 2656 TIP3 H1   HT            0.417         1.008       0
    8210 TIP3 2656 TIP3 H2   HT            0.417         1.008       0
    8211 TIP3 2657 TIP3 OH2  OT           -0.834       15.9994       0
    8212 TIP3 2657 TIP3 H1   HT            0.417         1.008       0
    8213 TIP3 2657 TIP3 H2   HT            0.417         1.008       0
    8214 TIP3 2658 TIP3 OH2  OT           -0.834       15.9994       0
    8215 TIP3 2658 TIP3 H1   HT            0.417         1.008       0
    8216 TIP3 2658 TIP3 H2   HT            0.417         1.008       0
    8217 TIP3 2659 TIP3 OH2  OT           -0.834       15.9994       0
    8218 TIP3 2659 TIP3 H1   HT            0.417         1.008       0
    8219 TIP3 2659 TIP3 H2   HT            0.417         1.008       0
    8220 TIP3 2660 TIP3 OH2  OT           -0.834       15.9994       0
    8221 TIP3 2660 TIP3 H1   HT            0.417         1.008       0
    8222 TIP3 2660 TIP3 H2   HT            0.417         1.008       0
    8223 TIP3 2661 TIP3 OH2  OT           -0.834       15.9994       0
    8224 TIP3 2661 TIP3 H1   HT            0.417         1.008       0
    8225 TIP3 2661 TIP3 H2   HT            0.417         1.008       0
    8226 TIP3 2662 TIP3 OH2  OT           -0.834       15.9994       0
    8227 TIP3 2662 TIP3 H1   HT            0.417         1.008       0
    8228 TIP3 2662 TIP3 H2   HT            0.417         1.008       0
    8229 TIP3 2663 TIP3 OH2  OT           -0.834       15.9994       0
    8230 TIP3 2663 TIP3 H1   HT            0.417         1.008       0
    8231 TIP3 2663 TIP3 H2   HT            0.417         1.008       0
    8232 TIP3 2664 TIP3 OH2  OT           -0.834       15.9994       0
    8233 TIP3 2664 TIP3 H1   HT            0.417         1.008       0
    8234 TIP3 2664 TIP3 H2   HT            0.417         1.008       0
    8235 TIP3 2665 TIP3 OH2  OT           -0.834       15.9994       0
    8236 TIP3 2665 TIP3 H1   HT            0.417         1.008       0
    8237 TIP3 2665 TIP3 H2   HT            0.417         1.008       0
    8238 TIP3 2666 TIP3 OH2  OT           -0.834       15.9994       0
    8239 TIP3 2666 TIP3 H1   HT            0.417         1.008       0
    8240 TIP3 2666 TIP3 H2   HT            0.417         1.008       0
    8241 TIP3 2667 TIP3 OH2  OT           -0.834       15.9994       0
    8242 TIP3 2667 TIP3 H1   HT            0.417         1.008       0
    8243 TIP3 2667 TIP3 H2   HT            0.417         1.008       0
    8244 TIP3 2668 TIP3 OH2  OT           -0.834       15.9994       0
    8245 TIP3 2668 TIP3 H1   HT            0.417         1.008       0
    8246 TIP3 2668 TIP3 H2   HT            0.417         1.008       0
    8247 TIP3 2669 TIP3 OH2  OT           -0.834       15.9994       0
    8248 TIP3 2669 TIP3 H1   HT            0.417         1.008       0
    8249 TIP3 2669 TIP3 H2   HT            0.417         1.008       0
    8250 TIP3 2670 TIP3 OH2  OT           -0.834       15.9994       0
    8251 TIP3 2670 TIP3 H1   HT            0.417         1.008       0
    8252 TIP3 2670 TIP3 H2   HT            0.417         1.008       0
    8253 TIP3 2671 TIP3 OH2  OT           -0.834       15.9994       0
    8254 TIP3 2671 TIP3 H1   HT            0.417         1.008       0
    8255 TIP3 2671 TIP3 H2   HT            0.417         1.008       0
    8256 TIP3 2672 TIP3 OH2  OT           -0.834       15.9994       0
    8257 TIP3 2672 TIP3 H1   HT            0.417         1.008       0
    8258 TIP3 2672 TIP3 H2   HT            0.417         1.008       0
    8259 TIP3 2673 TIP3 OH2  OT           -0.834       15.9994       0
    8260 TIP3 2673 TIP3 H1   HT            0.417         1.008       0
    8261 TIP3 2673 TIP3 H2   HT            0.417         1.008       0
    8262 TIP3 2674 TIP3 OH2  OT           -0.834       15.9994       0
    8263 TIP3 2674 TIP3 H1   HT            0.417         1.008       0
    8264 TIP3 2674 TIP3 H2   HT            0.417         1.008       0
    8265 TIP3 2675 TIP3 OH2  OT           -0.834       15.9994       0
    8266 TIP3 2675 TIP3 H1   HT            0.417         1.008       0
    8267 TIP3 2675 TIP3 H2   HT            0.417         1.008       0
    8268 TIP3 2676 TIP3 OH2  OT           -0.834       15.9994       0
    8269 TIP3 2676 TIP3 H1   HT            0.417         1.008       0
    8270 TIP3 2676 TIP3 H2   HT            0.417         1.008       0
    8271 TIP3 2677 TIP3 OH2  OT           -0.834       15.9994       0
    8272 TIP3 2677 TIP3 H1   HT            0.417         1.008       0
    8273 TIP3 2677 TIP3 H2   HT            0.417         1.008       0
    8274 TIP3 2678 TIP3 OH2  OT           -0.834       15.9994       0
    8275 TIP3 2678 TIP3 H1   HT            0.417         1.008       0
    8276 TIP3 2678 TIP3 H2   HT            0.417         1.008       0
    8277 TIP3 2679 TIP3 OH2  OT           -0.834       15.9994       0
    8278 TIP3 2679 TIP3 H1   HT            0.417         1.008       0
    8279 TIP3 2679 TIP3 H2   HT            0.417         1.008       0
    8280 TIP3 2680 TIP3 OH2  OT           -0.834       15.9994       0
    8281 TIP3 2680 TIP3 H1   HT            0.417         1.008       0
    8282 TIP3 2680 TIP3 H2   HT            0.417         1.008       0
    8283 TIP3 2681 TIP3 OH2  OT           -0.834       15.9994       0
    8284 TIP3 2681 TIP3 H1   HT            0.417         1.008       0
    8285 TIP3 2681 TIP3 H2   HT            0.417         1.008       0
    8286 TIP3 2682 TIP3 OH2  OT           -0.834       15.9994       0
    8287 TIP3 2682 TIP3 H1   HT            0.417         1.008       0
    8288 TIP3 2682 TIP3 H2   HT            0.417         1.008       0
    8289 TIP3 2683 TIP3 OH2  OT           -0.834       15.9994       0
    8290 TIP3 2683 TIP3 H1   HT            0.417         1.008       0
    8291 TIP3 2683 TIP3 H2   HT            0.417         1.008       0
    8292 TIP3 2684 TIP3 OH2  OT           -0.834       15.9994       0
    8293 TIP3 2684 TIP3 H1   HT            0.417         1.008       0
    8294 TIP3 2684 TIP3 H2   HT            0.417         1.008       0
    8295 TIP3 2685 TIP3 OH2  OT           -0.834       15.9994       0
    8296 TIP3 2685 TIP3 H1   HT            0.417         1.008       0
    8297 TIP3 2685 TIP3 H2   HT            0.417         1.008       0
    8298 TIP3 2686 TIP3 OH2  OT           -0.834       15.9994       0
    8299 TIP3 2686 TIP3 H1   HT            0.417         1.008       0
    8300 TIP3 2686 TIP3 H2   HT            0.417         1.008       0
    8301 TIP3 2687 TIP3 OH2  OT           -0.834       15.9994       0
    8302 TIP3 2687 TIP3 H1   HT            0.417         1.008       0
    8303 TIP3 2687 TIP3 H2   HT            0.417         1.008       0
    8304 TIP3 2688 TIP3 OH2  OT           -0.834       15.9994       0
    8305 TIP3 2688 TIP3 H1   HT            0.417         1.008       0
    8306 TIP3 2688 TIP3 H2   HT            0.417         1.008       0
    8307 TIP3 2689 TIP3 OH2  OT           -0.834       15.9994       0
    8308 TIP3 2689 TIP3 H1   HT            0.417         1.008       0
    8309 TIP3 2689 TIP3 H2   HT            0.417         1.008       0
    8310 TIP3 2690 TIP3 OH2  OT           -0.834       15.9994       0
    8311 TIP3 2690 TIP3 H1   HT            0.417         1.008       0
    8312 TIP3 2690 TIP3 H2   HT            0.417         1.008       0
    8313 TIP3 2691 TIP3 OH2  OT           -0.834       15.9994       0
    8314 TIP3 2691 TIP3 H1   HT            0.417         1.008       0
    8315 TIP3 2691 TIP3 H2   HT            0.417         1.008       0
    8316 TIP3 2692 TIP3 OH2  OT           -0.834       15.9994       0
    8317 TIP3 2692 TIP3 H1   HT            0.417         1.008       0
    8318 TIP3 2692 TIP3 H2   HT            0.417         1.008       0
    8319 TIP3 2693 TIP3 OH2  OT           -0.834       15.9994       0
    8320 TIP3 2693 TIP3 H1   HT            0.417         1.008       0
    8321 TIP3 2693 TIP3 H2   HT            0.417         1.008       0
    8322 TIP3 2694 TIP3 OH2  OT           -0.834       15.9994       0
    8323 TIP3 2694 TIP3 H1   HT            0.417         1.008       0
    8324 TIP3 2694 TIP3 H2   HT            0.417         1.008       0
    8325 TIP3 2695 TIP3 OH2  OT           -0.834       15.9994       0
    8326 TIP3 2695 TIP3 H1   HT            0.417         1.008       0
    8327 TIP3 2695 TIP3 H2   HT            0.417         1.008       0
    8328 TIP3 2696 TIP3 OH2  OT           -0.834       15.9994       0
    8329 TIP3 2696 TIP3 H1   HT            0.417         1.008       0
    8330 TIP3 2696 TIP3 H2   HT            0.417         1.008       0
    8331 TIP3 2697 TIP3 OH2  OT           -0.834       15.9994       0
    8332 TIP3 2697 TIP3 H1   HT            0.417         1.008       0
    8333 TIP3 2697 TIP3 H2   HT            0.417         1.008       0
    8334 TIP3 2698 TIP3 OH2  OT           -0.834       15.9994       0
    8335 TIP3 2698 TIP3 H1   HT            0.417         1.008       0
    8336 TIP3 2698 TIP3 H2   HT            0.417         1.008       0
    8337 TIP3 2699 TIP3 OH2  OT           -0.834       15.9994       0
    8338 TIP3 2699 TIP3 H1   HT            0.417         1.008       0
    8339 TIP3 2699 TIP3 H2   HT            0.417         1.008       0
    8340 TIP3 2700 TIP3 OH2  OT           -0.834       15.9994       0
    8341 TIP3 2700 TIP3 H1   HT            0.417         1.008       0
    8342 TIP3 2700 TIP3 H2   HT            0.417         1.008       0
    8343 TIP3 2701 TIP3 OH2  OT           -0.834       15.9994       0
    8344 TIP3 2701 TIP3 H1   HT            0.417         1.008       0
    8345 TIP3 2701 TIP3 H2   HT            0.417         1.008       0
    8346 TIP3 2702 TIP3 OH2  OT           -0.834       15.9994       0
    8347 TIP3 2702 TIP3 H1   HT            0.417         1.008       0
    8348 TIP3 2702 TIP3 H2   HT            0.417         1.008       0
    8349 TIP3 2703 TIP3 OH2  OT           -0.834       15.9994       0
    8350 TIP3 2703 TIP3 H1   HT            0.417         1.008       0
    8351 TIP3 2703 TIP3 H2   HT            0.417         1.008       0
    8352 TIP3 2704 TIP3 OH2  OT           -0.834       15.9994       0
    8353 TIP3 2704 TIP3 H1   HT            0.417         1.008       0
    8354 TIP3 2704 TIP3 H2   HT            0.417         1.008       0
    8355 TIP3 2705 TIP3 OH2  OT           -0.834       15.9994       0
    8356 TIP3 2705 TIP3 H1   HT            0.417         1.008       0
    8357 TIP3 2705 TIP3 H2   HT            0.417         1.008       0
    8358 TIP3 2706 TIP3 OH2  OT           -0.834       15.9994       0
    8359 TIP3 2706 TIP3 H1   HT            0.417         1.008       0
    8360 TIP3 2706 TIP3 H2   HT            0.417         1.008       0
    8361 TIP3 2707 TIP3 OH2  OT           -0.834       15.9994       0
    8362 TIP3 2707 TIP3 H1   HT            0.417         1.008       0
    8363 TIP3 2707 TIP3 H2   HT            0.417         1.008       0
    8364 TIP3 2708 TIP3 OH2  OT           -0.834       15.9994       0
    8365 TIP3 2708 TIP3 H1   HT            0.417         1.008       0
    8366 TIP3 2708 TIP3 H2   HT            0.417         1.008       0
    8367 TIP3 2709 TIP3 OH2  OT           -0.834       15.9994       0
    8368 TIP3 2709 TIP3 H1   HT            0.417         1.008       0
    8369 TIP3 2709 TIP3 H2   HT            0.417         1.008       0
    8370 TIP3 2710 TIP3 OH2  OT           -0.834       15.9994       0
    8371 TIP3 2710 TIP3 H1   HT            0.417         1.008       0
    8372 TIP3 2710 TIP3 H2   HT            0.417         1.008       0
    8373 TIP3 2711 TIP3 OH2  OT           -0.834       15.9994       0
    8374 TIP3 2711 TIP3 H1   HT            0.417         1.008       0
    8375 TIP3 2711 TIP3 H2   HT            0.417         1.008       0
    8376 TIP3 2712 TIP3 OH2  OT           -0.834       15.9994       0
    8377 TIP3 2712 TIP3 H1   HT            0.417         1.008       0
    8378 TIP3 2712 TIP3 H2   HT            0.417         1.008       0
    8379 TIP3 2713 TIP3 OH2  OT           -0.834       15.9994       0
    8380 TIP3 2713 TIP3 H1   HT            0.417         1.008       0
    8381 TIP3 2713 TIP3 H2   HT            0.417         1.008       0
    8382 TIP3 2714 TIP3 OH2  OT           -0.834       15.9994       0
    8383 TIP3 2714 TIP3 H1   HT            0.417         1.008       0
    8384 TIP3 2714 TIP3 H2   HT            0.417         1.008       0
    8385 TIP3 2715 TIP3 OH2  OT           -0.834       15.9994       0
    8386 TIP3 2715 TIP3 H1   HT            0.417         1.008       0
    8387 TIP3 2715 TIP3 H2   HT            0.417         1.008       0
    8388 TIP3 2716 TIP3 OH2  OT           -0.834       15.9994       0
    8389 TIP3 2716 TIP3 H1   HT            0.417         1.008       0
    8390 TIP3 2716 TIP3 H2   HT            0.417         1.008       0
    8391 TIP3 2717 TIP3 OH2  OT           -0.834       15.9994       0
    8392 TIP3 2717 TIP3 H1   HT            0.417         1.008       0
    8393 TIP3 2717 TIP3 H2   HT            0.417         1.008       0
    8394 TIP3 2718 TIP3 OH2  OT           -0.834       15.9994       0
    8395 TIP3 2718 TIP3 H1   HT            0.417         1.008       0
    8396 TIP3 2718 TIP3 H2   HT            0.417         1.008       0
    8397 TIP3 2719 TIP3 OH2  OT           -0.834       15.9994       0
    8398 TIP3 2719 TIP3 H1   HT            0.417         1.008       0
    8399 TIP3 2719 TIP3 H2   HT            0.417         1.008       0
    8400 TIP3 2720 TIP3 OH2  OT           -0.834       15.9994       0
    8401 TIP3 2720 TIP3 H1   HT            0.417         1.008       0
    8402 TIP3 2720 TIP3 H2   HT            0.417         1.008       0
    8403 TIP3 2721 TIP3 OH2  OT           -0.834       15.9994       0
    8404 TIP3 2721 TIP3 H1   HT            0.417         1.008       0
    8405 TIP3 2721 TIP3 H2   HT            0.417         1.008       0
    8406 TIP3 2722 TIP3 OH2  OT           -0.834       15.9994       0
    8407 TIP3 2722 TIP3 H1   HT            0.417         1.008       0
    8408 TIP3 2722 TIP3 H2   HT            0.417         1.008       0
    8409 TIP3 2723 TIP3 OH2  OT           -0.834       15.9994       0
    8410 TIP3 2723 TIP3 H1   HT            0.417         1.008       0
    8411 TIP3 2723 TIP3 H2   HT            0.417         1.008       0
    8412 TIP3 2724 TIP3 OH2  OT           -0.834       15.9994       0
    8413 TIP3 2724 TIP3 H1   HT            0.417         1.008       0
    8414 TIP3 2724 TIP3 H2   HT            0.417         1.008       0
    8415 TIP3 2725 TIP3 OH2  OT           -0.834       15.9994       0
    8416 TIP3 2725 TIP3 H1   HT            0.417         1.008       0
    8417 TIP3 2725 TIP3 H2   HT            0.417         1.008       0
    8418 TIP3 2726 TIP3 OH2  OT           -0.834       15.9994       0
    8419 TIP3 2726 TIP3 H1   HT            0.417         1.008       0
    8420 TIP3 2726 TIP3 H2   HT            0.417         1.008       0
    8421 TIP3 2727 TIP3 OH2  OT           -0.834       15.9994       0
    8422 TIP3 2727 TIP3 H1   HT            0.417         1.008       0
    8423 TIP3 2727 TIP3 H2   HT            0.417         1.008       0
    8424 TIP3 2728 TIP3 OH2  OT           -0.834       15.9994       0
    8425 TIP3 2728 TIP3 H1   HT            0.417         1.008       0
    8426 TIP3 2728 TIP3 H2   HT            0.417         1.008       0
    8427 TIP3 2729 TIP3 OH2  OT           -0.834       15.9994       0
    8428 TIP3 2729 TIP3 H1   HT            0.417         1.008       0
    8429 TIP3 2729 TIP3 H2   HT            0.417         1.008       0
    8430 TIP3 2730 TIP3 OH2  OT           -0.834       15.9994       0
    8431 TIP3 2730 TIP3 H1   HT            0.417         1.008       0
    8432 TIP3 2730 TIP3 H2   HT            0.417         1.008       0
    8433 TIP3 2731 TIP3 OH2  OT           -0.834       15.9994       0
    8434 TIP3 2731 TIP3 H1   HT            0.417         1.008       0
    8435 TIP3 2731 TIP3 H2   HT            0.417         1.008       0
    8436 TIP3 2732 TIP3 OH2  OT           -0.834       15.9994       0
    8437 TIP3 2732 TIP3 H1   HT            0.417         1.008       0
    8438 TIP3 2732 TIP3 H2   HT            0.417         1.008       0
    8439 TIP3 2733 TIP3 OH2  OT           -0.834       15.9994       0
    8440 TIP3 2733 TIP3 H1   HT            0.417         1.008       0
    8441 TIP3 2733 TIP3 H2   HT            0.417         1.008       0
    8442 TIP3 2734 TIP3 OH2  OT           -0.834       15.9994       0
    8443 TIP3 2734 TIP3 H1   HT            0.417         1.008       0
    8444 TIP3 2734 TIP3 H2   HT            0.417         1.008       0
    8445 TIP3 2735 TIP3 OH2  OT           -0.834       15.9994       0
    8446 TIP3 2735 TIP3 H1   HT            0.417         1.008       0
    8447 TIP3 2735 TIP3 H2   HT            0.417         1.008       0
    8448 TIP3 2736 TIP3 OH2  OT           -0.834       15.9994       0
    8449 TIP3 2736 TIP3 H1   HT            0.417         1.008       0
    8450 TIP3 2736 TIP3 H2   HT            0.417         1.008       0
    8451 TIP3 2737 TIP3 OH2  OT           -0.834       15.9994       0
    8452 TIP3 2737 TIP3 H1   HT            0.417         1.008       0
    8453 TIP3 2737 TIP3 H2   HT            0.417         1.008       0
    8454 TIP3 2738 TIP3 OH2  OT           -0.834       15.9994       0
    8455 TIP3 2738 TIP3 H1   HT            0.417         1.008       0
    8456 TIP3 2738 TIP3 H2   HT            0.417         1.008       0
    8457 TIP3 2739 TIP3 OH2  OT           -0.834       15.9994       0
    8458 TIP3 2739 TIP3 H1   HT            0.417         1.008       0
    8459 TIP3 2739 TIP3 H2   HT            0.417         1.008       0
    8460 TIP3 2740 TIP3 OH2  OT           -0.834       15.9994       0
    8461 TIP3 2740 TIP3 H1   HT            0.417         1.008       0
    8462 TIP3 2740 TIP3 H2   HT            0.417         1.008       0
    8463 TIP3 2741 TIP3 OH2  OT           -0.834       15.9994       0
    8464 TIP3 2741 TIP3 H1   HT            0.417         1.008       0
    8465 TIP3 2741 TIP3 H2   HT            0.417         1.008       0
    8466 TIP3 2742 TIP3 OH2  OT           -0.834       15.9994       0
    8467 TIP3 2742 TIP3 H1   HT            0.417         1.008       0
    8468 TIP3 2742 TIP3 H2   HT            0.417         1.008       0
    8469 TIP3 2743 TIP3 OH2  OT           -0.834       15.9994       0
    8470 TIP3 2743 TIP3 H1   HT            0.417         1.008       0
    8471 TIP3 2743 TIP3 H2   HT            0.417         1.008       0
    8472 TIP3 2744 TIP3 OH2  OT           -0.834       15.9994       0
    8473 TIP3 2744 TIP3 H1   HT            0.417         1.008       0
    8474 TIP3 2744 TIP3 H2   HT            0.417         1.008       0
    8475 TIP3 2745 TIP3 OH2  OT           -0.834       15.9994       0
    8476 TIP3 2745 TIP3 H1   HT            0.417         1.008       0
    8477 TIP3 2745 TIP3 H2   HT            0.417         1.008       0
    8478 TIP3 2746 TIP3 OH2  OT           -0.834       15.9994       0
    8479 TIP3 2746 TIP3 H1   HT            0.417         1.008       0
    8480 TIP3 2746 TIP3 H2   HT            0.417         1.008       0
    8481 TIP3 2747 TIP3 OH2  OT           -0.834       15.9994       0
    8482 TIP3 2747 TIP3 H1   HT            0.417         1.008       0
    8483 TIP3 2747 TIP3 H2   HT            0.417         1.008       0
    8484 TIP3 2748 TIP3 OH2  OT           -0.834       15.9994       0
    8485 TIP3 2748 TIP3 H1   HT            0.417         1.008       0
    8486 TIP3 2748 TIP3 H2   HT            0.417         1.008       0
    8487 TIP3 2749 TIP3 OH2  OT           -0.834       15.9994       0
    8488 TIP3 2749 TIP3 H1   HT            0.417         1.008       0
    8489 TIP3 2749 TIP3 H2   HT            0.417         1.008       0
    8490 TIP3 2750 TIP3 OH2  OT           -0.834       15.9994       0
    8491 TIP3 2750 TIP3 H1   HT            0.417         1.008       0
    8492 TIP3 2750 TIP3 H2   HT            0.417         1.008       0
    8493 TIP3 2751 TIP3 OH2  OT           -0.834       15.9994       0
    8494 TIP3 2751 TIP3 H1   HT            0.417         1.008       0
    8495 TIP3 2751 TIP3 H2   HT            0.417         1.008       0
    8496 TIP3 2752 TIP3 OH2  OT           -0.834       15.9994       0
    8497 TIP3 2752 TIP3 H1   HT            0.417         1.008       0
    8498 TIP3 2752 TIP3 H2   HT            0.417         1.008       0
    8499 TIP3 2753 TIP3 OH2  OT           -0.834       15.9994       0
    8500 TIP3 2753 TIP3 H1   HT            0.417         1.008       0
    8501 TIP3 2753 TIP3 H2   HT            0.417         1.008       0
    8502 TIP3 2754 TIP3 OH2  OT           -0.834       15.9994       0
    8503 TIP3 2754 TIP3 H1   HT            0.417         1.008       0
    8504 TIP3 2754 TIP3 H2   HT            0.417         1.008       0
    8505 TIP3 2755 TIP3 OH2  OT           -0.834       15.9994       0
    8506 TIP3 2755 TIP3 H1   HT            0.417         1.008       0
    8507 TIP3 2755 TIP3 H2   HT            0.417         1.008       0
    8508 TIP3 2756 TIP3 OH2  OT           -0.834       15.9994       0
    8509 TIP3 2756 TIP3 H1   HT            0.417         1.008       0
    8510 TIP3 2756 TIP3 H2   HT            0.417         1.008       0
    8511 TIP3 2757 TIP3 OH2  OT           -0.834       15.9994       0
    8512 TIP3 2757 TIP3 H1   HT            0.417         1.008       0
    8513 TIP3 2757 TIP3 H2   HT            0.417         1.008       0
    8514 TIP3 2758 TIP3 OH2  OT           -0.834       15.9994       0
    8515 TIP3 2758 TIP3 H1   HT            0.417         1.008       0
    8516 TIP3 2758 TIP3 H2   HT            0.417         1.008       0
    8517 TIP3 2759 TIP3 OH2  OT           -0.834       15.9994       0
    8518 TIP3 2759 TIP3 H1   HT            0.417         1.008       0
    8519 TIP3 2759 TIP3 H2   HT            0.417         1.008       0
    8520 TIP3 2760 TIP3 OH2  OT           -0.834       15.9994       0
    8521 TIP3 2760 TIP3 H1   HT            0.417         1.008       0
    8522 TIP3 2760 TIP3 H2   HT            0.417         1.008       0
    8523 TIP3 2761 TIP3 OH2  OT           -0.834       15.9994       0
    8524 TIP3 2761 TIP3 H1   HT            0.417         1.008       0
    8525 TIP3 2761 TIP3 H2   HT            0.417         1.008       0
    8526 TIP3 2762 TIP3 OH2  OT           -0.834       15.9994       0
    8527 TIP3 2762 TIP3 H1   HT            0.417         1.008       0
    8528 TIP3 2762 TIP3 H2   HT            0.417         1.008       0
    8529 TIP3 2763 TIP3 OH2  OT           -0.834       15.9994       0
    8530 TIP3 2763 TIP3 H1   HT            0.417         1.008       0
    8531 TIP3 2763 TIP3 H2   HT            0.417         1.008       0
    8532 TIP3 2764 TIP3 OH2  OT           -0.834       15.9994       0
    8533 TIP3 2764 TIP3 H1   HT            0.417         1.008       0
    8534 TIP3 2764 TIP3 H2   HT            0.417         1.008       0
    8535 TIP3 2765 TIP3 OH2  OT           -0.834       15.9994       0
    8536 TIP3 2765 TIP3 H1   HT            0.417         1.008       0
    8537 TIP3 2765 TIP3 H2   HT            0.417         1.008       0
    8538 TIP3 2766 TIP3 OH2  OT           -0.834       15.9994       0
    8539 TIP3 2766 TIP3 H1   HT            0.417         1.008       0
    8540 TIP3 2766 TIP3 H2   HT            0.417         1.008       0
    8541 TIP3 2767 TIP3 OH2  OT           -0.834       15.9994       0
    8542 TIP3 2767 TIP3 H1   HT            0.417         1.008       0
    8543 TIP3 2767 TIP3 H2   HT            0.417         1.008       0
    8544 TIP3 2768 TIP3 OH2  OT           -0.834       15.9994       0
    8545 TIP3 2768 TIP3 H1   HT            0.417         1.008       0
    8546 TIP3 2768 TIP3 H2   HT            0.417         1.008       0
    8547 TIP3 2769 TIP3 OH2  OT           -0.834       15.9994       0
    8548 TIP3 2769 TIP3 H1   HT            0.417         1.008       0
    8549 TIP3 2769 TIP3 H2   HT            0.417         1.008       0
    8550 TIP3 2770 TIP3 OH2  OT           -0.834       15.9994       0
    8551 TIP3 2770 TIP3 H1   HT            0.417         1.008       0
    8552 TIP3 2770 TIP3 H2   HT            0.417         1.008       0
    8553 TIP3 2771 TIP3 OH2  OT           -0.834       15.9994       0
    8554 TIP3 2771 TIP3 H1   HT            0.417         1.008       0
    8555 TIP3 2771 TIP3 H2   HT            0.417         1.008       0
    8556 TIP3 2772 TIP3 OH2  OT           -0.834       15.9994       0
    8557 TIP3 2772 TIP3 H1   HT            0.417         1.008       0
    8558 TIP3 2772 TIP3 H2   HT            0.417         1.008       0
    8559 TIP3 2773 TIP3 OH2  OT           -0.834       15.9994       0
    8560 TIP3 2773 TIP3 H1   HT            0.417         1.008       0
    8561 TIP3 2773 TIP3 H2   HT            0.417         1.008       0
    8562 TIP3 2774 TIP3 OH2  OT           -0.834       15.9994       0
    8563 TIP3 2774 TIP3 H1   HT            0.417         1.008       0
    8564 TIP3 2774 TIP3 H2   HT            0.417         1.008       0
    8565 TIP3 2775 TIP3 OH2  OT           -0.834       15.9994       0
    8566 TIP3 2775 TIP3 H1   HT            0.417         1.008       0
    8567 TIP3 2775 TIP3 H2   HT            0.417         1.008       0
    8568 TIP3 2776 TIP3 OH2  OT           -0.834       15.9994       0
    8569 TIP3 2776 TIP3 H1   HT            0.417         1.008       0
    8570 TIP3 2776 TIP3 H2   HT            0.417         1.008       0
    8571 TIP3 2777 TIP3 OH2  OT           -0.834       15.9994       0
    8572 TIP3 2777 TIP3 H1   HT            0.417         1.008       0
    8573 TIP3 2777 TIP3 H2   HT            0.417         1.008       0
    8574 TIP3 2778 TIP3 OH2  OT           -0.834       15.9994       0
    8575 TIP3 2778 TIP3 H1   HT            0.417         1.008       0
    8576 TIP3 2778 TIP3 H2   HT            0.417         1.008       0
    8577 TIP3 2779 TIP3 OH2  OT           -0.834       15.9994       0
    8578 TIP3 2779 TIP3 H1   HT            0.417         1.008       0
    8579 TIP3 2779 TIP3 H2   HT            0.417         1.008       0
    8580 TIP3 2780 TIP3 OH2  OT           -0.834       15.9994       0
    8581 TIP3 2780 TIP3 H1   HT            0.417         1.008       0
    8582 TIP3 2780 TIP3 H2   HT            0.417         1.008       0
    8583 TIP3 2781 TIP3 OH2  OT           -0.834       15.9994       0
    8584 TIP3 2781 TIP3 H1   HT            0.417         1.008       0
    8585 TIP3 2781 TIP3 H2   HT            0.417         1.008       0
    8586 TIP3 2782 TIP3 OH2  OT           -0.834       15.9994       0
    8587 TIP3 2782 TIP3 H1   HT            0.417         1.008       0
    8588 TIP3 2782 TIP3 H2   HT            0.417         1.008       0
    8589 TIP3 2783 TIP3 OH2  OT           -0.834       15.9994       0
    8590 TIP3 2783 TIP3 H1   HT            0.417         1.008       0
    8591 TIP3 2783 TIP3 H2   HT            0.417         1.008       0
    8592 TIP3 2784 TIP3 OH2  OT           -0.834       15.9994       0
    8593 TIP3 2784 TIP3 H1   HT            0.417         1.008       0
    8594 TIP3 2784 TIP3 H2   HT            0.417         1.008       0
    8595 TIP3 2785 TIP3 OH2  OT           -0.834       15.9994       0
    8596 TIP3 2785 TIP3 H1   HT            0.417         1.008       0
    8597 TIP3 2785 TIP3 H2   HT            0.417         1.008       0
    8598 TIP3 2786 TIP3 OH2  OT           -0.834       15.9994       0
    8599 TIP3 2786 TIP3 H1   HT            0.417         1.008       0
    8600 TIP3 2786 TIP3 H2   HT            0.417         1.008       0
    8601 TIP3 2787 TIP3 OH2  OT           -0.834       15.9994       0
    8602 TIP3 2787 TIP3 H1   HT            0.417         1.008       0
    8603 TIP3 2787 TIP3 H2   HT            0.417         1.008       0
    8604 TIP3 2788 TIP3 OH2  OT           -0.834       15.9994       0
    8605 TIP3 2788 TIP3 H1   HT            0.417         1.008       0
    8606 TIP3 2788 TIP3 H2   HT            0.417         1.008       0
    8607 TIP3 2789 TIP3 OH2  OT           -0.834       15.9994       0
    8608 TIP3 2789 TIP3 H1   HT            0.417         1.008       0
    8609 TIP3 2789 TIP3 H2   HT            0.417         1.008       0
    8610 TIP3 2790 TIP3 OH2  OT           -0.834       15.9994       0
    8611 TIP3 2790 TIP3 H1   HT            0.417         1.008       0
    8612 TIP3 2790 TIP3 H2   HT            0.417         1.008       0
    8613 TIP3 2791 TIP3 OH2  OT           -0.834       15.9994       0
    8614 TIP3 2791 TIP3 H1   HT            0.417         1.008       0
    8615 TIP3 2791 TIP3 H2   HT            0.417         1.008       0
    8616 TIP3 2792 TIP3 OH2  OT           -0.834       15.9994       0
    8617 TIP3 2792 TIP3 H1   HT            0.417         1.008       0
    8618 TIP3 2792 TIP3 H2   HT            0.417         1.008       0
    8619 TIP3 2793 TIP3 OH2  OT           -0.834       15.9994       0
    8620 TIP3 2793 TIP3 H1   HT            0.417         1.008       0
    8621 TIP3 2793 TIP3 H2   HT            0.417         1.008       0
    8622 TIP3 2794 TIP3 OH2  OT           -0.834       15.9994       0
    8623 TIP3 2794 TIP3 H1   HT            0.417         1.008       0
    8624 TIP3 2794 TIP3 H2   HT            0.417         1.008       0
    8625 TIP3 2795 TIP3 OH2  OT           -0.834       15.9994       0
    8626 TIP3 2795 TIP3 H1   HT            0.417         1.008       0
    8627 TIP3 2795 TIP3 H2   HT            0.417         1.008       0
    8628 TIP3 2796 TIP3 OH2  OT           -0.834       15.9994       0
    8629 TIP3 2796 TIP3 H1   HT            0.417         1.008       0
    8630 TIP3 2796 TIP3 H2   HT            0.417         1.008       0
    8631 TIP3 2797 TIP3 OH2  OT           -0.834       15.9994       0
    8632 TIP3 2797 TIP3 H1   HT            0.417         1.008       0
    8633 TIP3 2797 TIP3 H2   HT            0.417         1.008       0
    8634 TIP3 2798 TIP3 OH2  OT           -0.834       15.9994       0
    8635 TIP3 2798 TIP3 H1   HT            0.417         1.008       0
    8636 TIP3 2798 TIP3 H2   HT            0.417         1.008       0
    8637 TIP3 2799 TIP3 OH2  OT           -0.834       15.9994       0
    8638 TIP3 2799 TIP3 H1   HT            0.417         1.008       0
    8639 TIP3 2799 TIP3 H2   HT            0.417         1.008       0
    8640 TIP3 2800 TIP3 OH2  OT           -0.834       15.9994       0
    8641 TIP3 2800 TIP3 H1   HT            0.417         1.008       0
    8642 TIP3 2800 TIP3 H2   HT            0.417         1.008       0
    8643 TIP3 2801 TIP3 OH2  OT           -0.834       15.9994       0
    8644 TIP3 2801 TIP3 H1   HT            0.417         1.008       0
    8645 TIP3 2801 TIP3 H2   HT            0.417         1.008       0
    8646 TIP3 2802 TIP3 OH2  OT           -0.834       15.9994       0
    8647 TIP3 2802 TIP3 H1   HT            0.417         1.008       0
    8648 TIP3 2802 TIP3 H2   HT            0.417         1.008       0
    8649 TIP3 2803 TIP3 OH2  OT           -0.834       15.9994       0
    8650 TIP3 2803 TIP3 H1   HT            0.417         1.008       0
    8651 TIP3 2803 TIP3 H2   HT            0.417         1.008       0
    8652 TIP3 2804 TIP3 OH2  OT           -0.834       15.9994       0
    8653 TIP3 2804 TIP3 H1   HT            0.417         1.008       0
    8654 TIP3 2804 TIP3 H2   HT            0.417         1.008       0
    8655 TIP3 2805 TIP3 OH2  OT           -0.834       15.9994       0
    8656 TIP3 2805 TIP3 H1   HT            0.417         1.008       0
    8657 TIP3 2805 TIP3 H2   HT            0.417         1.008       0
    8658 TIP3 2806 TIP3 OH2  OT           -0.834       15.9994       0
    8659 TIP3 2806 TIP3 H1   HT            0.417         1.008       0
    8660 TIP3 2806 TIP3 H2   HT            0.417         1.008       0
    8661 TIP3 2807 TIP3 OH2  OT           -0.834       15.9994       0
    8662 TIP3 2807 TIP3 H1   HT            0.417         1.008       0
    8663 TIP3 2807 TIP3 H2   HT            0.417         1.008       0
    8664 TIP3 2808 TIP3 OH2  OT           -0.834       15.9994       0
    8665 TIP3 2808 TIP3 H1   HT            0.417         1.008       0
    8666 TIP3 2808 TIP3 H2   HT            0.417         1.008       0
    8667 TIP3 2809 TIP3 OH2  OT           -0.834       15.9994       0
    8668 TIP3 2809 TIP3 H1   HT            0.417         1.008       0
    8669 TIP3 2809 TIP3 H2   HT            0.417         1.008       0
    8670 TIP3 2810 TIP3 OH2  OT           -0.834       15.9994       0
    8671 TIP3 2810 TIP3 H1   HT            0.417         1.008       0
    8672 TIP3 2810 TIP3 H2   HT            0.417         1.008       0
    8673 TIP3 2811 TIP3 OH2  OT           -0.834       15.9994       0
    8674 TIP3 2811 TIP3 H1   HT            0.417         1.008       0
    8675 TIP3 2811 TIP3 H2   HT            0.417         1.008       0
    8676 TIP3 2812 TIP3 OH2  OT           -0.834       15.9994       0
    8677 TIP3 2812 TIP3 H1   HT            0.417         1.008       0
    8678 TIP3 2812 TIP3 H2   HT            0.417         1.008       0
    8679 TIP3 2813 TIP3 OH2  OT           -0.834       15.9994       0
    8680 TIP3 2813 TIP3 H1   HT            0.417         1.008       0
    8681 TIP3 2813 TIP3 H2   HT            0.417         1.008       0
    8682 TIP3 2814 TIP3 OH2  OT           -0.834       15.9994       0
    8683 TIP3 2814 TIP3 H1   HT            0.417         1.008       0
    8684 TIP3 2814 TIP3 H2   HT            0.417         1.008       0
    8685 TIP3 2815 TIP3 OH2  OT           -0.834       15.9994       0
    8686 TIP3 2815 TIP3 H1   HT            0.417         1.008       0
    8687 TIP3 2815 TIP3 H2   HT            0.417         1.008       0
    8688 TIP3 2816 TIP3 OH2  OT           -0.834       15.9994       0
    8689 TIP3 2816 TIP3 H1   HT            0.417         1.008       0
    8690 TIP3 2816 TIP3 H2   HT            0.417         1.008       0
    8691 TIP3 2817 TIP3 OH2  OT           -0.834       15.9994       0
    8692 TIP3 2817 TIP3 H1   HT            0.417         1.008       0
    8693 TIP3 2817 TIP3 H2   HT            0.417         1.008       0
    8694 TIP3 2818 TIP3 OH2  OT           -0.834       15.9994       0
    8695 TIP3 2818 TIP3 H1   HT            0.417         1.008       0
    8696 TIP3 2818 TIP3 H2   HT            0.417         1.008       0
    8697 TIP3 2819 TIP3 OH2  OT           -0.834       15.9994       0
    8698 TIP3 2819 TIP3 H1   HT            0.417         1.008       0
    8699 TIP3 2819 TIP3 H2   HT            0.417         1.008       0
    8700 TIP3 2820 TIP3 OH2  OT           -0.834       15.9994       0
    8701 TIP3 2820 TIP3 H1   HT            0.417         1.008       0
    8702 TIP3 2820 TIP3 H2   HT            0.417         1.008       0
    8703 TIP3 2821 TIP3 OH2  OT           -0.834       15.9994       0
    8704 TIP3 2821 TIP3 H1   HT            0.417         1.008       0
    8705 TIP3 2821 TIP3 H2   HT            0.417         1.008       0
    8706 TIP3 2822 TIP3 OH2  OT           -0.834       15.9994       0
    8707 TIP3 2822 TIP3 H1   HT            0.417         1.008       0
    8708 TIP3 2822 TIP3 H2   HT            0.417         1.008       0
    8709 TIP3 2823 TIP3 OH2  OT           -0.834       15.9994       0
    8710 TIP3 2823 TIP3 H1   HT            0.417         1.008       0
    8711 TIP3 2823 TIP3 H2   HT            0.417         1.008       0
    8712 TIP3 2824 TIP3 OH2  OT           -0.834       15.9994       0
    8713 TIP3 2824 TIP3 H1   HT            0.417         1.008       0
    8714 TIP3 2824 TIP3 H2   HT            0.417         1.008       0
    8715 TIP3 2825 TIP3 OH2  OT           -0.834       15.9994       0
    8716 TIP3 2825 TIP3 H1   HT            0.417         1.008       0
    8717 TIP3 2825 TIP3 H2   HT            0.417         1.008       0
    8718 TIP3 2826 TIP3 OH2  OT           -0.834       15.9994       0
    8719 TIP3 2826 TIP3 H1   HT            0.417         1.008       0
    8720 TIP3 2826 TIP3 H2   HT            0.417         1.008       0
    8721 TIP3 2827 TIP3 OH2  OT           -0.834       15.9994       0
    8722 TIP3 2827 TIP3 H1   HT            0.417         1.008       0
    8723 TIP3 2827 TIP3 H2   HT            0.417         1.008       0
    8724 TIP3 2828 TIP3 OH2  OT           -0.834       15.9994       0
    8725 TIP3 2828 TIP3 H1   HT            0.417         1.008       0
    8726 TIP3 2828 TIP3 H2   HT            0.417         1.008       0
    8727 TIP3 2829 TIP3 OH2  OT           -0.834       15.9994       0
    8728 TIP3 2829 TIP3 H1   HT            0.417         1.008       0
    8729 TIP3 2829 TIP3 H2   HT            0.417         1.008       0
    8730 TIP3 2830 TIP3 OH2  OT           -0.834       15.9994       0
    8731 TIP3 2830 TIP3 H1   HT            0.417         1.008       0
    8732 TIP3 2830 TIP3 H2   HT            0.417         1.008       0
    8733 TIP3 2831 TIP3 OH2  OT           -0.834       15.9994       0
    8734 TIP3 2831 TIP3 H1   HT            0.417         1.008       0
    8735 TIP3 2831 TIP3 H2   HT            0.417         1.008       0
    8736 TIP3 2832 TIP3 OH2  OT           -0.834       15.9994       0
    8737 TIP3 2832 TIP3 H1   HT            0.417         1.008       0
    8738 TIP3 2832 TIP3 H2   HT            0.417         1.008       0
    8739 TIP3 2833 TIP3 OH2  OT           -0.834       15.9994       0
    8740 TIP3 2833 TIP3 H1   HT            0.417         1.008       0
    8741 TIP3 2833 TIP3 H2   HT            0.417         1.008       0
    8742 TIP3 2834 TIP3 OH2  OT           -0.834       15.9994       0
    8743 TIP3 2834 TIP3 H1   HT            0.417         1.008       0
    8744 TIP3 2834 TIP3 H2   HT            0.417         1.008       0
    8745 TIP3 2835 TIP3 OH2  OT           -0.834       15.9994       0
    8746 TIP3 2835 TIP3 H1   HT            0.417         1.008       0
    8747 TIP3 2835 TIP3 H2   HT            0.417         1.008       0
    8748 TIP3 2836 TIP3 OH2  OT           -0.834       15.9994       0
    8749 TIP3 2836 TIP3 H1   HT            0.417         1.008       0
    8750 TIP3 2836 TIP3 H2   HT            0.417         1.008       0
    8751 TIP3 2837 TIP3 OH2  OT           -0.834       15.9994       0
    8752 TIP3 2837 TIP3 H1   HT            0.417         1.008       0
    8753 TIP3 2837 TIP3 H2   HT            0.417         1.008       0
    8754 TIP3 2838 TIP3 OH2  OT           -0.834       15.9994       0
    8755 TIP3 2838 TIP3 H1   HT            0.417         1.008       0
    8756 TIP3 2838 TIP3 H2   HT            0.417         1.008       0
    8757 TIP3 2839 TIP3 OH2  OT           -0.834       15.9994       0
    8758 TIP3 2839 TIP3 H1   HT            0.417         1.008       0
    8759 TIP3 2839 TIP3 H2   HT            0.417         1.008       0
    8760 TIP3 2840 TIP3 OH2  OT           -0.834       15.9994       0
    8761 TIP3 2840 TIP3 H1   HT            0.417         1.008       0
    8762 TIP3 2840 TIP3 H2   HT            0.417         1.008       0
    8763 TIP3 2841 TIP3 OH2  OT           -0.834       15.9994       0
    8764 TIP3 2841 TIP3 H1   HT            0.417         1.008       0
    8765 TIP3 2841 TIP3 H2   HT            0.417         1.008       0
    8766 TIP3 2842 TIP3 OH2  OT           -0.834       15.9994       0
    8767 TIP3 2842 TIP3 H1   HT            0.417         1.008       0
    8768 TIP3 2842 TIP3 H2   HT            0.417         1.008       0
    8769 TIP3 2843 TIP3 OH2  OT           -0.834       15.9994       0
    8770 TIP3 2843 TIP3 H1   HT            0.417         1.008       0
    8771 TIP3 2843 TIP3 H2   HT            0.417         1.008       0
    8772 TIP3 2844 TIP3 OH2  OT           -0.834       15.9994       0
    8773 TIP3 2844 TIP3 H1   HT            0.417         1.008       0
    8774 TIP3 2844 TIP3 H2   HT            0.417         1.008       0
    8775 TIP3 2845 TIP3 OH2  OT           -0.834       15.9994       0
    8776 TIP3 2845 TIP3 H1   HT            0.417         1.008       0
    8777 TIP3 2845 TIP3 H2   HT            0.417         1.008       0
    8778 TIP3 2846 TIP3 OH2  OT           -0.834       15.9994       0
    8779 TIP3 2846 TIP3 H1   HT            0.417         1.008       0
    8780 TIP3 2846 TIP3 H2   HT            0.417         1.008       0
    8781 TIP3 2847 TIP3 OH2  OT           -0.834       15.9994       0
    8782 TIP3 2847 TIP3 H1   HT            0.417         1.008       0
    8783 TIP3 2847 TIP3 H2   HT            0.417         1.008       0
    8784 TIP3 2848 TIP3 OH2  OT           -0.834       15.9994       0
    8785 TIP3 2848 TIP3 H1   HT            0.417         1.008       0
    8786 TIP3 2848 TIP3 H2   HT            0.417         1.008       0
    8787 TIP3 2849 TIP3 OH2  OT           -0.834       15.9994       0
    8788 TIP3 2849 TIP3 H1   HT            0.417         1.008       0
    8789 TIP3 2849 TIP3 H2   HT            0.417         1.008       0
    8790 TIP3 2850 TIP3 OH2  OT           -0.834       15.9994       0
    8791 TIP3 2850 TIP3 H1   HT            0.417         1.008       0
    8792 TIP3 2850 TIP3 H2   HT            0.417         1.008       0
    8793 TIP3 2851 TIP3 OH2  OT           -0.834       15.9994       0
    8794 TIP3 2851 TIP3 H1   HT            0.417         1.008       0
    8795 TIP3 2851 TIP3 H2   HT            0.417         1.008       0
    8796 TIP3 2852 TIP3 OH2  OT           -0.834       15.9994       0
    8797 TIP3 2852 TIP3 H1   HT            0.417         1.008       0
    8798 TIP3 2852 TIP3 H2   HT            0.417         1.008       0
    8799 TIP3 2853 TIP3 OH2  OT           -0.834       15.9994       0
    8800 TIP3 2853 TIP3 H1   HT            0.417         1.008       0
    8801 TIP3 2853 TIP3 H2   HT            0.417         1.008       0
    8802 TIP3 2854 TIP3 OH2  OT           -0.834       15.9994       0
    8803 TIP3 2854 TIP3 H1   HT            0.417         1.008       0
    8804 TIP3 2854 TIP3 H2   HT            0.417         1.008       0
    8805 TIP3 2855 TIP3 OH2  OT           -0.834       15.9994       0
    8806 TIP3 2855 TIP3 H1   HT            0.417         1.008       0
    8807 TIP3 2855 TIP3 H2   HT            0.417         1.008       0
    8808 TIP3 2856 TIP3 OH2  OT           -0.834       15.9994       0
    8809 TIP3 2856 TIP3 H1   HT            0.417         1.008       0
    8810 TIP3 2856 TIP3 H2   HT            0.417         1.008       0
    8811 TIP3 2857 TIP3 OH2  OT           -0.834       15.9994       0
    8812 TIP3 2857 TIP3 H1   HT            0.417         1.008       0
    8813 TIP3 2857 TIP3 H2   HT            0.417         1.008       0
    8814 TIP3 2858 TIP3 OH2  OT           -0.834       15.9994       0
    8815 TIP3 2858 TIP3 H1   HT            0.417         1.008       0
    8816 TIP3 2858 TIP3 H2   HT            0.417         1.008       0
    8817 TIP3 2859 TIP3 OH2  OT           -0.834       15.9994       0
    8818 TIP3 2859 TIP3 H1   HT            0.417         1.008       0
    8819 TIP3 2859 TIP3 H2   HT            0.417         1.008       0
    8820 TIP3 2860 TIP3 OH2  OT           -0.834       15.9994       0
    8821 TIP3 2860 TIP3 H1   HT            0.417         1.008       0
    8822 TIP3 2860 TIP3 H2   HT            0.417         1.008       0
    8823 TIP3 2861 TIP3 OH2  OT           -0.834       15.9994       0
    8824 TIP3 2861 TIP3 H1   HT            0.417         1.008       0
    8825 TIP3 2861 TIP3 H2   HT            0.417         1.008       0
    8826 TIP3 2862 TIP3 OH2  OT           -0.834       15.9994       0
    8827 TIP3 2862 TIP3 H1   HT            0.417         1.008       0
    8828 TIP3 2862 TIP3 H2   HT            0.417         1.008       0
    8829 TIP3 2863 TIP3 OH2  OT           -0.834       15.9994       0
    8830 TIP3 2863 TIP3 H1   HT            0.417         1.008       0
    8831 TIP3 2863 TIP3 H2   HT            0.417         1.008       0
    8832 TIP3 2864 TIP3 OH2  OT           -0.834       15.9994       0
    8833 TIP3 2864 TIP3 H1   HT            0.417         1.008       0
    8834 TIP3 2864 TIP3 H2   HT            0.417         1.008       0
    8835 TIP3 2865 TIP3 OH2  OT           -0.834       15.9994       0
    8836 TIP3 2865 TIP3 H1   HT            0.417         1.008       0
    8837 TIP3 2865 TIP3 H2   HT            0.417         1.008       0
    8838 TIP3 2866 TIP3 OH2  OT           -0.834       15.9994       0
    8839 TIP3 2866 TIP3 H1   HT            0.417         1.008       0
    8840 TIP3 2866 TIP3 H2   HT            0.417         1.008       0
    8841 TIP3 2867 TIP3 OH2  OT           -0.834       15.9994       0
    8842 TIP3 2867 TIP3 H1   HT            0.417         1.008       0
    8843 TIP3 2867 TIP3 H2   HT            0.417         1.008       0
    8844 TIP3 2868 TIP3 OH2  OT           -0.834       15.9994       0
    8845 TIP3 2868 TIP3 H1   HT            0.417         1.008       0
    8846 TIP3 2868 TIP3 H2   HT            0.417         1.008       0
    8847 TIP3 2869 TIP3 OH2  OT           -0.834       15.9994       0
    8848 TIP3 2869 TIP3 H1   HT            0.417         1.008       0
    8849 TIP3 2869 TIP3 H2   HT            0.417         1.008       0
    8850 TIP3 2870 TIP3 OH2  OT           -0.834       15.9994       0
    8851 TIP3 2870 TIP3 H1   HT            0.417         1.008       0
    8852 TIP3 2870 TIP3 H2   HT            0.417         1.008       0
    8853 TIP3 2871 TIP3 OH2  OT           -0.834       15.9994       0
    8854 TIP3 2871 TIP3 H1   HT            0.417         1.008       0
    8855 TIP3 2871 TIP3 H2   HT            0.417         1.008       0
    8856 TIP3 2872 TIP3 OH2  OT           -0.834       15.9994       0
    8857 TIP3 2872 TIP3 H1   HT            0.417         1.008       0
    8858 TIP3 2872 TIP3 H2   HT            0.417         1.008       0
    8859 TIP3 2873 TIP3 OH2  OT           -0.834       15.9994       0
    8860 TIP3 2873 TIP3 H1   HT            0.417         1.008       0
    8861 TIP3 2873 TIP3 H2   HT            0.417         1.008       0
    8862 TIP3 2874 TIP3 OH2  OT           -0.834       15.9994       0
    8863 TIP3 2874 TIP3 H1   HT            0.417         1.008       0
    8864 TIP3 2874 TIP3 H2   HT            0.417         1.008       0
    8865 TIP3 2875 TIP3 OH2  OT           -0.834       15.9994       0
    8866 TIP3 2875 TIP3 H1   HT            0.417         1.008       0
    8867 TIP3 2875 TIP3 H2   HT            0.417         1.008       0
    8868 TIP3 2876 TIP3 OH2  OT           -0.834       15.9994       0
    8869 TIP3 2876 TIP3 H1   HT            0.417         1.008       0
    8870 TIP3 2876 TIP3 H2   HT            0.417         1.008       0
    8871 TIP3 2877 TIP3 OH2  OT           -0.834       15.9994       0
    8872 TIP3 2877 TIP3 H1   HT            0.417         1.008       0
    8873 TIP3 2877 TIP3 H2   HT            0.417         1.008       0
    8874 TIP3 2878 TIP3 OH2  OT           -0.834       15.9994       0
    8875 TIP3 2878 TIP3 H1   HT            0.417         1.008       0
    8876 TIP3 2878 TIP3 H2   HT            0.417         1.008       0
    8877 TIP3 2879 TIP3 OH2  OT           -0.834       15.9994       0
    8878 TIP3 2879 TIP3 H1   HT            0.417         1.008       0
    8879 TIP3 2879 TIP3 H2   HT            0.417         1.008       0
    8880 TIP3 2880 TIP3 OH2  OT           -0.834       15.9994       0
    8881 TIP3 2880 TIP3 H1   HT            0.417         1.008       0
    8882 TIP3 2880 TIP3 H2   HT            0.417         1.008       0
    8883 TIP3 2881 TIP3 OH2  OT           -0.834       15.9994       0
    8884 TIP3 2881 TIP3 H1   HT            0.417         1.008       0
    8885 TIP3 2881 TIP3 H2   HT            0.417         1.008       0
    8886 TIP3 2882 TIP3 OH2  OT           -0.834       15.9994       0
    8887 TIP3 2882 TIP3 H1   HT            0.417         1.008       0
    8888 TIP3 2882 TIP3 H2   HT            0.417         1.008       0
    8889 TIP3 2883 TIP3 OH2  OT           -0.834       15.9994       0
    8890 TIP3 2883 TIP3 H1   HT            0.417         1.008       0
    8891 TIP3 2883 TIP3 H2   HT            0.417         1.008       0
    8892 TIP3 2884 TIP3 OH2  OT           -0.834       15.9994       0
    8893 TIP3 2884 TIP3 H1   HT            0.417         1.008       0
    8894 TIP3 2884 TIP3 H2   HT            0.417         1.008       0
    8895 TIP3 2885 TIP3 OH2  OT           -0.834       15.9994       0
    8896 TIP3 2885 TIP3 H1   HT            0.417         1.008       0
    8897 TIP3 2885 TIP3 H2   HT            0.417         1.008       0
    8898 TIP3 2886 TIP3 OH2  OT           -0.834       15.9994       0
    8899 TIP3 2886 TIP3 H1   HT            0.417         1.008       0
    8900 TIP3 2886 TIP3 H2   HT            0.417         1.008       0
    8901 TIP3 2887 TIP3 OH2  OT           -0.834       15.9994       0
    8902 TIP3 2887 TIP3 H1   HT            0.417         1.008       0
    8903 TIP3 2887 TIP3 H2   HT            0.417         1.008       0
    8904 TIP3 2888 TIP3 OH2  OT           -0.834       15.9994       0
    8905 TIP3 2888 TIP3 H1   HT            0.417         1.008       0
    8906 TIP3 2888 TIP3 H2   HT            0.417         1.008       0
    8907 TIP3 2889 TIP3 OH2  OT           -0.834       15.9994       0
    8908 TIP3 2889 TIP3 H1   HT            0.417         1.008       0
    8909 TIP3 2889 TIP3 H2   HT            0.417         1.008       0
    8910 TIP3 2890 TIP3 OH2  OT           -0.834       15.9994       0
    8911 TIP3 2890 TIP3 H1   HT            0.417         1.008       0
    8912 TIP3 2890 TIP3 H2   HT            0.417         1.008       0
    8913 TIP3 2891 TIP3 OH2  OT           -0.834       15.9994       0
    8914 TIP3 2891 TIP3 H1   HT            0.417         1.008       0
    8915 TIP3 2891 TIP3 H2   HT            0.417         1.008       0
    8916 TIP3 2892 TIP3 OH2  OT           -0.834       15.9994       0
    8917 TIP3 2892 TIP3 H1   HT            0.417         1.008       0
    8918 TIP3 2892 TIP3 H2   HT            0.417         1.008       0
    8919 TIP3 2893 TIP3 OH2  OT           -0.834       15.9994       0
    8920 TIP3 2893 TIP3 H1   HT            0.417         1.008       0
    8921 TIP3 2893 TIP3 H2   HT            0.417         1.008       0
    8922 TIP3 2894 TIP3 OH2  OT           -0.834       15.9994       0
    8923 TIP3 2894 TIP3 H1   HT            0.417         1.008       0
    8924 TIP3 2894 TIP3 H2   HT            0.417         1.008       0
    8925 TIP3 2895 TIP3 OH2  OT           -0.834       15.9994       0
    8926 TIP3 2895 TIP3 H1   HT            0.417         1.008       0
    8927 TIP3 2895 TIP3 H2   HT            0.417         1.008       0
    8928 TIP3 2896 TIP3 OH2  OT           -0.834       15.9994       0
    8929 TIP3 2896 TIP3 H1   HT            0.417         1.008       0
    8930 TIP3 2896 TIP3 H2   HT            0.417         1.008       0
    8931 TIP3 2897 TIP3 OH2  OT           -0.834       15.9994       0
    8932 TIP3 2897 TIP3 H1   HT            0.417         1.008       0
    8933 TIP3 2897 TIP3 H2   HT            0.417         1.008       0
    8934 TIP3 2898 TIP3 OH2  OT           -0.834       15.9994       0
    8935 TIP3 2898 TIP3 H1   HT            0.417         1.008       0
    8936 TIP3 2898 TIP3 H2   HT            0.417         1.008       0
    8937 TIP3 2899 TIP3 OH2  OT           -0.834       15.9994       0
    8938 TIP3 2899 TIP3 H1   HT            0.417         1.008       0
    8939 TIP3 2899 TIP3 H2   HT            0.417         1.008       0
    8940 TIP3 2900 TIP3 OH2  OT           -0.834       15.9994       0
    8941 TIP3 2900 TIP3 H1   HT            0.417         1.008       0
    8942 TIP3 2900 TIP3 H2   HT            0.417         1.008       0
    8943 TIP3 2901 TIP3 OH2  OT           -0.834       15.9994       0
    8944 TIP3 2901 TIP3 H1   HT            0.417         1.008       0
    8945 TIP3 2901 TIP3 H2   HT            0.417         1.008       0
    8946 TIP3 2902 TIP3 OH2  OT           -0.834       15.9994       0
    8947 TIP3 2902 TIP3 H1   HT            0.417         1.008       0
    8948 TIP3 2902 TIP3 H2   HT            0.417         1.008       0
    8949 TIP3 2903 TIP3 OH2  OT           -0.834       15.9994       0
    8950 TIP3 2903 TIP3 H1   HT            0.417         1.008       0
    8951 TIP3 2903 TIP3 H2   HT            0.417         1.008       0
    8952 TIP3 2904 TIP3 OH2  OT           -0.834       15.9994       0
    8953 TIP3 2904 TIP3 H1   HT            0.417         1.008       0
    8954 TIP3 2904 TIP3 H2   HT            0.417         1.008       0
    8955 TIP3 2905 TIP3 OH2  OT           -0.834       15.9994       0
    8956 TIP3 2905 TIP3 H1   HT            0.417         1.008       0
    8957 TIP3 2905 TIP3 H2   HT            0.417         1.008       0
    8958 TIP3 2906 TIP3 OH2  OT           -0.834       15.9994       0
    8959 TIP3 2906 TIP3 H1   HT            0.417         1.008       0
    8960 TIP3 2906 TIP3 H2   HT            0.417         1.008       0
    8961 TIP3 2907 TIP3 OH2  OT           -0.834       15.9994       0
    8962 TIP3 2907 TIP3 H1   HT            0.417         1.008       0
    8963 TIP3 2907 TIP3 H2   HT            0.417         1.008       0
    8964 TIP3 2908 TIP3 OH2  OT           -0.834       15.9994       0
    8965 TIP3 2908 TIP3 H1   HT            0.417         1.008       0
    8966 TIP3 2908 TIP3 H2   HT            0.417         1.008       0
    8967 TIP3 2909 TIP3 OH2  OT           -0.834       15.9994       0
    8968 TIP3 2909 TIP3 H1   HT            0.417         1.008       0
    8969 TIP3 2909 TIP3 H2   HT            0.417         1.008       0
    8970 TIP3 2910 TIP3 OH2  OT           -0.834       15.9994       0
    8971 TIP3 2910 TIP3 H1   HT            0.417         1.008       0
    8972 TIP3 2910 TIP3 H2   HT            0.417         1.008       0
    8973 TIP3 2911 TIP3 OH2  OT           -0.834       15.9994       0
    8974 TIP3 2911 TIP3 H1   HT            0.417         1.008       0
    8975 TIP3 2911 TIP3 H2   HT            0.417         1.008       0
    8976 TIP3 2912 TIP3 OH2  OT           -0.834       15.9994       0
    8977 TIP3 2912 TIP3 H1   HT            0.417         1.008       0
    8978 TIP3 2912 TIP3 H2   HT            0.417         1.008       0
    8979 TIP3 2913 TIP3 OH2  OT           -0.834       15.9994       0
    8980 TIP3 2913 TIP3 H1   HT            0.417         1.008       0
    8981 TIP3 2913 TIP3 H2   HT            0.417         1.008       0
    8982 TIP3 2914 TIP3 OH2  OT           -0.834       15.9994       0
    8983 TIP3 2914 TIP3 H1   HT            0.417         1.008       0
    8984 TIP3 2914 TIP3 H2   HT            0.417         1.008       0
    8985 TIP3 2915 TIP3 OH2  OT           -0.834       15.9994       0
    8986 TIP3 2915 TIP3 H1   HT            0.417         1.008       0
    8987 TIP3 2915 TIP3 H2   HT            0.417         1.008       0
    8988 TIP3 2916 TIP3 OH2  OT           -0.834       15.9994       0
    8989 TIP3 2916 TIP3 H1   HT            0.417         1.008       0
    8990 TIP3 2916 TIP3 H2   HT            0.417         1.008       0
    8991 TIP3 2917 TIP3 OH2  OT           -0.834       15.9994       0
    8992 TIP3 2917 TIP3 H1   HT            0.417         1.008       0
    8993 TIP3 2917 TIP3 H2   HT            0.417         1.008       0
    8994 TIP3 2918 TIP3 OH2  OT           -0.834       15.9994       0
    8995 TIP3 2918 TIP3 H1   HT            0.417         1.008       0
    8996 TIP3 2918 TIP3 H2   HT            0.417         1.008       0
    8997 TIP3 2919 TIP3 OH2  OT           -0.834       15.9994       0
    8998 TIP3 2919 TIP3 H1   HT            0.417         1.008       0
    8999 TIP3 2919 TIP3 H2   HT            0.417         1.008       0
    9000 TIP3 2920 TIP3 OH2  OT           -0.834       15.9994       0
    9001 TIP3 2920 TIP3 H1   HT            0.417         1.008       0
    9002 TIP3 2920 TIP3 H2   HT            0.417         1.008       0
    9003 TIP3 2921 TIP3 OH2  OT           -0.834       15.9994       0
    9004 TIP3 2921 TIP3 H1   HT            0.417         1.008       0
    9005 TIP3 2921 TIP3 H2   HT            0.417         1.008       0
    9006 TIP3 2922 TIP3 OH2  OT           -0.834       15.9994       0
    9007 TIP3 2922 TIP3 H1   HT            0.417         1.008       0
    9008 TIP3 2922 TIP3 H2   HT            0.417         1.008       0
    9009 TIP3 2923 TIP3 OH2  OT           -0.834       15.9994       0
    9010 TIP3 2923 TIP3 H1   HT            0.417         1.008       0
    9011 TIP3 2923 TIP3 H2   HT            0.417         1.008       0
    9012 TIP3 2924 TIP3 OH2  OT           -0.834       15.9994       0
    9013 TIP3 2924 TIP3 H1   HT            0.417         1.008       0
    9014 TIP3 2924 TIP3 H2   HT            0.417         1.008       0
    9015 TIP3 2925 TIP3 OH2  OT           -0.834       15.9994       0
    9016 TIP3 2925 TIP3 H1   HT            0.417         1.008       0
    9017 TIP3 2925 TIP3 H2   HT            0.417         1.008       0
    9018 TIP3 2926 TIP3 OH2  OT           -0.834       15.9994       0
    9019 TIP3 2926 TIP3 H1   HT            0.417         1.008       0
    9020 TIP3 2926 TIP3 H2   HT            0.417         1.008       0
    9021 TIP3 2927 TIP3 OH2  OT           -0.834       15.9994       0
    9022 TIP3 2927 TIP3 H1   HT            0.417         1.008       0
    9023 TIP3 2927 TIP3 H2   HT            0.417         1.008       0
    9024 TIP3 2928 TIP3 OH2  OT           -0.834       15.9994       0
    9025 TIP3 2928 TIP3 H1   HT            0.417         1.008       0
    9026 TIP3 2928 TIP3 H2   HT            0.417         1.008       0
    9027 TIP3 2929 TIP3 OH2  OT           -0.834       15.9994       0
    9028 TIP3 2929 TIP3 H1   HT            0.417         1.008       0
    9029 TIP3 2929 TIP3 H2   HT            0.417         1.008       0
    9030 TIP3 2930 TIP3 OH2  OT           -0.834       15.9994       0
    9031 TIP3 2930 TIP3 H1   HT            0.417         1.008       0
    9032 TIP3 2930 TIP3 H2   HT            0.417         1.008       0
    9033 TIP3 2931 TIP3 OH2  OT           -0.834       15.9994       0
    9034 TIP3 2931 TIP3 H1   HT            0.417         1.008       0
    9035 TIP3 2931 TIP3 H2   HT            0.417         1.008       0
    9036 TIP3 2932 TIP3 OH2  OT           -0.834       15.9994       0
    9037 TIP3 2932 TIP3 H1   HT            0.417         1.008       0
    9038 TIP3 2932 TIP3 H2   HT            0.417         1.008       0
    9039 TIP3 2933 TIP3 OH2  OT           -0.834       15.9994       0
    9040 TIP3 2933 TIP3 H1   HT            0.417         1.008       0
    9041 TIP3 2933 TIP3 H2   HT            0.417         1.008       0
    9042 TIP3 2934 TIP3 OH2  OT           -0.834       15.9994       0
    9043 TIP3 2934 TIP3 H1   HT            0.417         1.008       0
    9044 TIP3 2934 TIP3 H2   HT            0.417         1.008       0
    9045 TIP3 2935 TIP3 OH2  OT           -0.834       15.9994       0
    9046 TIP3 2935 TIP3 H1   HT            0.417         1.008       0
    9047 TIP3 2935 TIP3 H2   HT            0.417         1.008       0
    9048 TIP3 2936 TIP3 OH2  OT           -0.834       15.9994       0
    9049 TIP3 2936 TIP3 H1   HT            0.417         1.008       0
    9050 TIP3 2936 TIP3 H2   HT            0.417         1.008       0
    9051 TIP3 2937 TIP3 OH2  OT           -0.834       15.9994       0
    9052 TIP3 2937 TIP3 H1   HT            0.417         1.008       0
    9053 TIP3 2937 TIP3 H2   HT            0.417         1.008       0
    9054 TIP3 2938 TIP3 OH2  OT           -0.834       15.9994       0
    9055 TIP3 2938 TIP3 H1   HT            0.417         1.008       0
    9056 TIP3 2938 TIP3 H2   HT            0.417         1.008       0
    9057 TIP3 2939 TIP3 OH2  OT           -0.834       15.9994       0
    9058 TIP3 2939 TIP3 H1   HT            0.417         1.008       0
    9059 TIP3 2939 TIP3 H2   HT            0.417         1.008       0
    9060 TIP3 2940 TIP3 OH2  OT           -0.834       15.9994       0
    9061 TIP3 2940 TIP3 H1   HT            0.417         1.008       0
    9062 TIP3 2940 TIP3 H2   HT            0.417         1.008       0
    9063 TIP3 2941 TIP3 OH2  OT           -0.834       15.9994       0
    9064 TIP3 2941 TIP3 H1   HT            0.417         1.008       0
    9065 TIP3 2941 TIP3 H2   HT            0.417         1.008       0
    9066 TIP3 2942 TIP3 OH2  OT           -0.834       15.9994       0
    9067 TIP3 2942 TIP3 H1   HT            0.417         1.008       0
    9068 TIP3 2942 TIP3 H2   HT            0.417         1.008       0
    9069 TIP3 2943 TIP3 OH2  OT           -0.834       15.9994       0
    9070 TIP3 2943 TIP3 H1   HT            0.417         1.008       0
    9071 TIP3 2943 TIP3 H2   HT            0.417         1.008       0
    9072 TIP3 2944 TIP3 OH2  OT           -0.834       15.9994       0
    9073 TIP3 2944 TIP3 H1   HT            0.417         1.008       0
    9074 TIP3 2944 TIP3 H2   HT            0.417         1.008       0
    9075 TIP3 2945 TIP3 OH2  OT           -0.834       15.9994       0
    9076 TIP3 2945 TIP3 H1   HT            0.417         1.008       0
    9077 TIP3 2945 TIP3 H2   HT            0.417         1.008       0
    9078 TIP3 2946 TIP3 OH2  OT           -0.834       15.9994       0
    9079 TIP3 2946 TIP3 H1   HT            0.417         1.008       0
    9080 TIP3 2946 TIP3 H2   HT            0.417         1.008       0
    9081 TIP3 2947 TIP3 OH2  OT           -0.834       15.9994       0
    9082 TIP3 2947 TIP3 H1   HT            0.417         1.008       0
    9083 TIP3 2947 TIP3 H2   HT            0.417         1.008       0
    9084 TIP3 2948 TIP3 OH2  OT           -0.834       15.9994       0
    9085 TIP3 2948 TIP3 H1   HT            0.417         1.008       0
    9086 TIP3 2948 TIP3 H2   HT            0.417         1.008       0
    9087 TIP3 2949 TIP3 OH2  OT           -0.834       15.9994       0
    9088 TIP3 2949 TIP3 H1   HT            0.417         1.008       0
    9089 TIP3 2949 TIP3 H2   HT            0.417         1.008       0
    9090 TIP3 2950 TIP3 OH2  OT           -0.834       15.9994       0
    9091 TIP3 2950 TIP3 H1   HT            0.417         1.008       0
    9092 TIP3 2950 TIP3 H2   HT            0.417         1.008       0
    9093 TIP3 2951 TIP3 OH2  OT           -0.834       15.9994       0
    9094 TIP3 2951 TIP3 H1   HT            0.417         1.008       0
    9095 TIP3 2951 TIP3 H2   HT            0.417         1.008       0
    9096 TIP3 2952 TIP3 OH2  OT           -0.834       15.9994       0
    9097 TIP3 2952 TIP3 H1   HT            0.417         1.008       0
    9098 TIP3 2952 TIP3 H2   HT            0.417         1.008       0
    9099 TIP3 2953 TIP3 OH2  OT           -0.834       15.9994       0
    9100 TIP3 2953 TIP3 H1   HT            0.417         1.008       0
    9101 TIP3 2953 TIP3 H2   HT            0.417         1.008       0
    9102 TIP3 2954 TIP3 OH2  OT           -0.834       15.9994       0
    9103 TIP3 2954 TIP3 H1   HT            0.417         1.008       0
    9104 TIP3 2954 TIP3 H2   HT            0.417         1.008       0
    9105 TIP3 2955 TIP3 OH2  OT           -0.834       15.9994       0
    9106 TIP3 2955 TIP3 H1   HT            0.417         1.008       0
    9107 TIP3 2955 TIP3 H2   HT            0.417         1.008       0
    9108 TIP3 2956 TIP3 OH2  OT           -0.834       15.9994       0
    9109 TIP3 2956 TIP3 H1   HT            0.417         1.008       0
    9110 TIP3 2956 TIP3 H2   HT            0.417         1.008       0
    9111 TIP3 2957 TIP3 OH2  OT           -0.834       15.9994       0
    9112 TIP3 2957 TIP3 H1   HT            0.417         1.008       0
    9113 TIP3 2957 TIP3 H2   HT            0.417         1.008       0
    9114 TIP3 2958 TIP3 OH2  OT           -0.834       15.9994       0
    9115 TIP3 2958 TIP3 H1   HT            0.417         1.008       0
    9116 TIP3 2958 TIP3 H2   HT            0.417         1.008       0
    9117 TIP3 2959 TIP3 OH2  OT           -0.834       15.9994       0
    9118 TIP3 2959 TIP3 H1   HT            0.417         1.008       0
    9119 TIP3 2959 TIP3 H2   HT            0.417         1.008       0
    9120 TIP3 2960 TIP3 OH2  OT           -0.834       15.9994       0
    9121 TIP3 2960 TIP3 H1   HT            0.417         1.008       0
    9122 TIP3 2960 TIP3 H2   HT            0.417         1.008       0
    9123 TIP3 2961 TIP3 OH2  OT           -0.834       15.9994       0
    9124 TIP3 2961 TIP3 H1   HT            0.417         1.008       0
    9125 TIP3 2961 TIP3 H2   HT            0.417         1.008       0
    9126 TIP3 2962 TIP3 OH2  OT           -0.834       15.9994       0
    9127 TIP3 2962 TIP3 H1   HT            0.417         1.008       0
    9128 TIP3 2962 TIP3 H2   HT            0.417         1.008       0
    9129 TIP3 2963 TIP3 OH2  OT           -0.834       15.9994       0
    9130 TIP3 2963 TIP3 H1   HT            0.417         1.008       0
    9131 TIP3 2963 TIP3 H2   HT            0.417         1.008       0
    9132 TIP3 2964 TIP3 OH2  OT           -0.834       15.9994       0
    9133 TIP3 2964 TIP3 H1   HT            0.417         1.008       0
    9134 TIP3 2964 TIP3 H2   HT            0.417         1.008       0
    9135 TIP3 2965 TIP3 OH2  OT           -0.834       15.9994       0
    9136 TIP3 2965 TIP3 H1   HT            0.417         1.008       0
    9137 TIP3 2965 TIP3 H2   HT            0.417         1.008       0
    9138 TIP3 2966 TIP3 OH2  OT           -0.834       15.9994       0
    9139 TIP3 2966 TIP3 H1   HT            0.417         1.008       0
    9140 TIP3 2966 TIP3 H2   HT            0.417         1.008       0
    9141 TIP3 2967 TIP3 OH2  OT           -0.834       15.9994       0
    9142 TIP3 2967 TIP3 H1   HT            0.417         1.008       0
    9143 TIP3 2967 TIP3 H2   HT            0.417         1.008       0
    9144 TIP3 2968 TIP3 OH2  OT           -0.834       15.9994       0
    9145 TIP3 2968 TIP3 H1   HT            0.417         1.008       0
    9146 TIP3 2968 TIP3 H2   HT            0.417         1.008       0
    9147 TIP3 2969 TIP3 OH2  OT           -0.834       15.9994       0
    9148 TIP3 2969 TIP3 H1   HT            0.417         1.008       0
    9149 TIP3 2969 TIP3 H2   HT            0.417         1.008       0
    9150 TIP3 2970 TIP3 OH2  OT           -0.834       15.9994       0
    9151 TIP3 2970 TIP3 H1   HT            0.417         1.008       0
    9152 TIP3 2970 TIP3 H2   HT            0.417         1.008       0
    9153 TIP3 2971 TIP3 OH2  OT           -0.834       15.9994       0
    9154 TIP3 2971 TIP3 H1   HT            0.417         1.008       0
    9155 TIP3 2971 TIP3 H2   HT            0.417         1.008       0
    9156 TIP3 2972 TIP3 OH2  OT           -0.834       15.9994       0
    9157 TIP3 2972 TIP3 H1   HT            0.417         1.008       0
    9158 TIP3 2972 TIP3 H2   HT            0.417         1.008       0
    9159 TIP3 2973 TIP3 OH2  OT           -0.834       15.9994       0
    9160 TIP3 2973 TIP3 H1   HT            0.417         1.008       0
    9161 TIP3 2973 TIP3 H2   HT            0.417         1.008       0
    9162 TIP3 2974 TIP3 OH2  OT           -0.834       15.9994       0
    9163 TIP3 2974 TIP3 H1   HT            0.417         1.008       0
    9164 TIP3 2974 TIP3 H2   HT            0.417         1.008       0
    9165 TIP3 2975 TIP3 OH2  OT           -0.834       15.9994       0
    9166 TIP3 2975 TIP3 H1   HT            0.417         1.008       0
    9167 TIP3 2975 TIP3 H2   HT            0.417         1.008       0
    9168 TIP3 2976 TIP3 OH2  OT           -0.834       15.9994       0
    9169 TIP3 2976 TIP3 H1   HT            0.417         1.008       0
    9170 TIP3 2976 TIP3 H2   HT            0.417         1.008       0
    9171 TIP3 2977 TIP3 OH2  OT           -0.834       15.9994       0
    9172 TIP3 2977 TIP3 H1   HT            0.417         1.008       0
    9173 TIP3 2977 TIP3 H2   HT            0.417         1.008       0
    9174 TIP3 2978 TIP3 OH2  OT           -0.834       15.9994       0
    9175 TIP3 2978 TIP3 H1   HT            0.417         1.008       0
    9176 TIP3 2978 TIP3 H2   HT            0.417         1.008       0
    9177 TIP3 2979 TIP3 OH2  OT           -0.834       15.9994       0
    9178 TIP3 2979 TIP3 H1   HT            0.417         1.008       0
    9179 TIP3 2979 TIP3 H2   HT            0.417         1.008       0
    9180 TIP3 2980 TIP3 OH2  OT           -0.834       15.9994       0
    9181 TIP3 2980 TIP3 H1   HT            0.417         1.008       0
    9182 TIP3 2980 TIP3 H2   HT            0.417         1.008       0
    9183 TIP3 2981 TIP3 OH2  OT           -0.834       15.9994       0
    9184 TIP3 2981 TIP3 H1   HT            0.417         1.008       0
    9185 TIP3 2981 TIP3 H2   HT            0.417         1.008       0
    9186 TIP3 2982 TIP3 OH2  OT           -0.834       15.9994       0
    9187 TIP3 2982 TIP3 H1   HT            0.417         1.008       0
    9188 TIP3 2982 TIP3 H2   HT            0.417         1.008       0
    9189 TIP3 2983 TIP3 OH2  OT           -0.834       15.9994       0
    9190 TIP3 2983 TIP3 H1   HT            0.417         1.008       0
    9191 TIP3 2983 TIP3 H2   HT            0.417         1.008       0
    9192 TIP3 2984 TIP3 OH2  OT           -0.834       15.9994       0
    9193 TIP3 2984 TIP3 H1   HT            0.417         1.008       0
    9194 TIP3 2984 TIP3 H2   HT            0.417         1.008       0
    9195 TIP3 2985 TIP3 OH2  OT           -0.834       15.9994       0
    9196 TIP3 2985 TIP3 H1   HT            0.417         1.008       0
    9197 TIP3 2985 TIP3 H2   HT            0.417         1.008       0
    9198 TIP3 2986 TIP3 OH2  OT           -0.834       15.9994       0
    9199 TIP3 2986 TIP3 H1   HT            0.417         1.008       0
    9200 TIP3 2986 TIP3 H2   HT            0.417         1.008       0
    9201 TIP3 2987 TIP3 OH2  OT           -0.834       15.9994       0
    9202 TIP3 2987 TIP3 H1   HT            0.417         1.008       0
    9203 TIP3 2987 TIP3 H2   HT            0.417         1.008       0
    9204 TIP3 2988 TIP3 OH2  OT           -0.834       15.9994       0
    9205 TIP3 2988 TIP3 H1   HT            0.417         1.008       0
    9206 TIP3 2988 TIP3 H2   HT            0.417         1.008       0
    9207 TIP3 2989 TIP3 OH2  OT           -0.834       15.9994       0
    9208 TIP3 2989 TIP3 H1   HT            0.417         1.008       0
    9209 TIP3 2989 TIP3 H2   HT            0.417         1.008       0
    9210 TIP3 2990 TIP3 OH2  OT           -0.834       15.9994       0
    9211 TIP3 2990 TIP3 H1   HT            0.417         1.008       0
    9212 TIP3 2990 TIP3 H2   HT            0.417         1.008       0
    9213 TIP3 2991 TIP3 OH2  OT           -0.834       15.9994       0
    9214 TIP3 2991 TIP3 H1   HT            0.417         1.008       0
    9215 TIP3 2991 TIP3 H2   HT            0.417         1.008       0
    9216 TIP3 2992 TIP3 OH2  OT           -0.834       15.9994       0
    9217 TIP3 2992 TIP3 H1   HT            0.417         1.008       0
    9218 TIP3 2992 TIP3 H2   HT            0.417         1.008       0
    9219 TIP3 2993 TIP3 OH2  OT           -0.834       15.9994       0
    9220 TIP3 2993 TIP3 H1   HT            0.417         1.008       0
    9221 TIP3 2993 TIP3 H2   HT            0.417         1.008       0
    9222 TIP3 2994 TIP3 OH2  OT           -0.834       15.9994       0
    9223 TIP3 2994 TIP3 H1   HT            0.417         1.008       0
    9224 TIP3 2994 TIP3 H2   HT            0.417         1.008       0
    9225 TIP3 2995 TIP3 OH2  OT           -0.834       15.9994       0
    9226 TIP3 2995 TIP3 H1   HT            0.417         1.008       0
    9227 TIP3 2995 TIP3 H2   HT            0.417         1.008       0
    9228 TIP3 2996 TIP3 OH2  OT           -0.834       15.9994       0
    9229 TIP3 2996 TIP3 H1   HT            0.417         1.008       0
    9230 TIP3 2996 TIP3 H2   HT            0.417         1.008       0
    9231 TIP3 2997 TIP3 OH2  OT           -0.834       15.9994       0
    9232 TIP3 2997 TIP3 H1   HT            0.417         1.008       0
    9233 TIP3 2997 TIP3 H2   HT            0.417         1.008       0
    9234 TIP3 2998 TIP3 OH2  OT           -0.834       15.9994       0
    9235 TIP3 2998 TIP3 H1   HT            0.417         1.008       0
    9236 TIP3 2998 TIP3 H2   HT            0.417         1.008       0
    9237 TIP3 2999 TIP3 OH2  OT           -0.834       15.9994       0
    9238 TIP3 2999 TIP3 H1   HT            0.417         1.008       0
    9239 TIP3 2999 TIP3 H2   HT            0.417         1.008       0
    9240 TIP3 3000 TIP3 OH2  OT           -0.834       15.9994       0
    9241 TIP3 3000 TIP3 H1   HT            0.417         1.008       0
    9242 TIP3 3000 TIP3 H2   HT            0.417         1.008       0
    9243 TIP3 3001 TIP3 OH2  OT           -0.834       15.9994       0
    9244 TIP3 3001 TIP3 H1   HT            0.417         1.008       0
    9245 TIP3 3001 TIP3 H2   HT            0.417         1.008       0
    9246 TIP3 3002 TIP3 OH2  OT           -0.834       15.9994       0
    9247 TIP3 3002 TIP3 H1   HT            0.417         1.008       0
    9248 TIP3 3002 TIP3 H2   HT            0.417         1.008       0
    9249 TIP3 3003 TIP3 OH2  OT           -0.834       15.9994       0
    9250 TIP3 3003 TIP3 H1   HT            0.417         1.008       0
    9251 TIP3 3003 TIP3 H2   HT            0.417         1.008       0
    9252 TIP3 3004 TIP3 OH2  OT           -0.834       15.9994       0
    9253 TIP3 3004 TIP3 H1   HT            0.417         1.008       0
    9254 TIP3 3004 TIP3 H2   HT            0.417         1.008       0
    9255 TIP3 3005 TIP3 OH2  OT           -0.834       15.9994       0
    9256 TIP3 3005 TIP3 H1   HT            0.417         1.008       0
    9257 TIP3 3005 TIP3 H2   HT            0.417         1.008       0
    9258 TIP3 3006 TIP3 OH2  OT           -0.834       15.9994       0
    9259 TIP3 3006 TIP3 H1   HT            0.417         1.008       0
    9260 TIP3 3006 TIP3 H2   HT            0.417         1.008       0
    9261 TIP3 3007 TIP3 OH2  OT           -0.834       15.9994       0
    9262 TIP3 3007 TIP3 H1   HT            0.417         1.008       0
    9263 TIP3 3007 TIP3 H2   HT            0.417         1.008       0
    9264 TIP3 3008 TIP3 OH2  OT           -0.834       15.9994       0
    9265 TIP3 3008 TIP3 H1   HT            0.417         1.008       0
    9266 TIP3 3008 TIP3 H2   HT            0.417         1.008       0
    9267 TIP3 3009 TIP3 OH2  OT           -0.834       15.9994       0
    9268 TIP3 3009 TIP3 H1   HT            0.417         1.008       0
    9269 TIP3 3009 TIP3 H2   HT            0.417         1.008       0
    9270 TIP3 3010 TIP3 OH2  OT           -0.834       15.9994       0
    9271 TIP3 3010 TIP3 H1   HT            0.417         1.008       0
    9272 TIP3 3010 TIP3 H2   HT            0.417         1.008       0
    9273 TIP3 3011 TIP3 OH2  OT           -0.834       15.9994       0
    9274 TIP3 3011 TIP3 H1   HT            0.417         1.008       0
    9275 TIP3 3011 TIP3 H2   HT            0.417         1.008       0
    9276 TIP3 3012 TIP3 OH2  OT           -0.834       15.9994       0
    9277 TIP3 3012 TIP3 H1   HT            0.417         1.008       0
    9278 TIP3 3012 TIP3 H2   HT            0.417         1.008       0
    9279 TIP3 3013 TIP3 OH2  OT           -0.834       15.9994       0
    9280 TIP3 3013 TIP3 H1   HT            0.417         1.008       0
    9281 TIP3 3013 TIP3 H2   HT            0.417         1.008       0
    9282 TIP3 3014 TIP3 OH2  OT           -0.834       15.9994       0
    9283 TIP3 3014 TIP3 H1   HT            0.417         1.008       0
    9284 TIP3 3014 TIP3 H2   HT            0.417         1.008       0
    9285 TIP3 3015 TIP3 OH2  OT           -0.834       15.9994       0
    9286 TIP3 3015 TIP3 H1   HT            0.417         1.008       0
    9287 TIP3 3015 TIP3 H2   HT            0.417         1.008       0
    9288 TIP3 3016 TIP3 OH2  OT           -0.834       15.9994       0
    9289 TIP3 3016 TIP3 H1   HT            0.417         1.008       0
    9290 TIP3 3016 TIP3 H2   HT            0.417         1.008       0
    9291 TIP3 3017 TIP3 OH2  OT           -0.834       15.9994       0
    9292 TIP3 3017 TIP3 H1   HT            0.417         1.008       0
    9293 TIP3 3017 TIP3 H2   HT            0.417         1.008       0
    9294 TIP3 3018 TIP3 OH2  OT           -0.834       15.9994       0
    9295 TIP3 3018 TIP3 H1   HT            0.417         1.008       0
    9296 TIP3 3018 TIP3 H2   HT            0.417         1.008       0
    9297 TIP3 3019 TIP3 OH2  OT           -0.834       15.9994       0
    9298 TIP3 3019 TIP3 H1   HT            0.417         1.008       0
    9299 TIP3 3019 TIP3 H2   HT            0.417         1.008       0
    9300 TIP3 3020 TIP3 OH2  OT           -0.834       15.9994       0
    9301 TIP3 3020 TIP3 H1   HT            0.417         1.008       0
    9302 TIP3 3020 TIP3 H2   HT            0.417         1.008       0
    9303 TIP3 3021 TIP3 OH2  OT           -0.834       15.9994       0
    9304 TIP3 3021 TIP3 H1   HT            0.417         1.008       0
    9305 TIP3 3021 TIP3 H2   HT            0.417         1.008       0
    9306 TIP3 3022 TIP3 OH2  OT           -0.834       15.9994       0
    9307 TIP3 3022 TIP3 H1   HT            0.417         1.008       0
    9308 TIP3 3022 TIP3 H2   HT            0.417         1.008       0
    9309 TIP3 3023 TIP3 OH2  OT           -0.834       15.9994       0
    9310 TIP3 3023 TIP3 H1   HT            0.417         1.008       0
    9311 TIP3 3023 TIP3 H2   HT            0.417         1.008       0
    9312 TIP3 3024 TIP3 OH2  OT           -0.834       15.9994       0
    9313 TIP3 3024 TIP3 H1   HT            0.417         1.008       0
    9314 TIP3 3024 TIP3 H2   HT            0.417         1.008       0
    9315 TIP3 3025 TIP3 OH2  OT           -0.834       15.9994       0
    9316 TIP3 3025 TIP3 H1   HT            0.417         1.008       0
    9317 TIP3 3025 TIP3 H2   HT            0.417         1.008       0
    9318 TIP3 3026 TIP3 OH2  OT           -0.834       15.9994       0
    9319 TIP3 3026 TIP3 H1   HT            0.417         1.008       0
    9320 TIP3 3026 TIP3 H2   HT            0.417         1.008       0
    9321 TIP3 3027 TIP3 OH2  OT           -0.834       15.9994       0
    9322 TIP3 3027 TIP3 H1   HT            0.417         1.008       0
    9323 TIP3 3027 TIP3 H2   HT            0.417         1.008       0
    9324 TIP3 3028 TIP3 OH2  OT           -0.834       15.9994       0
    9325 TIP3 3028 TIP3 H1   HT            0.417         1.008       0
    9326 TIP3 3028 TIP3 H2   HT            0.417         1.008       0
    9327 TIP3 3029 TIP3 OH2  OT           -0.834       15.9994       0
    9328 TIP3 3029 TIP3 H1   HT            0.417         1.008       0
    9329 TIP3 3029 TIP3 H2   HT            0.417         1.008       0
    9330 TIP3 3030 TIP3 OH2  OT           -0.834       15.9994       0
    9331 TIP3 3030 TIP3 H1   HT            0.417         1.008       0
    9332 TIP3 3030 TIP3 H2   HT            0.417         1.008       0
    9333 TIP3 3031 TIP3 OH2  OT           -0.834       15.9994       0
    9334 TIP3 3031 TIP3 H1   HT            0.417         1.008       0
    9335 TIP3 3031 TIP3 H2   HT            0.417         1.008       0
    9336 TIP3 3032 TIP3 OH2  OT           -0.834       15.9994       0
    9337 TIP3 3032 TIP3 H1   HT            0.417         1.008       0
    9338 TIP3 3032 TIP3 H2   HT            0.417         1.008       0
    9339 TIP3 3033 TIP3 OH2  OT           -0.834       15.9994       0
    9340 TIP3 3033 TIP3 H1   HT            0.417         1.008       0
    9341 TIP3 3033 TIP3 H2   HT            0.417         1.008       0
    9342 TIP3 3034 TIP3 OH2  OT           -0.834       15.9994       0
    9343 TIP3 3034 TIP3 H1   HT            0.417         1.008       0
    9344 TIP3 3034 TIP3 H2   HT            0.417         1.008       0
    9345 TIP3 3035 TIP3 OH2  OT           -0.834       15.9994       0
    9346 TIP3 3035 TIP3 H1   HT            0.417         1.008       0
    9347 TIP3 3035 TIP3 H2   HT            0.417         1.008       0
    9348 TIP3 3036 TIP3 OH2  OT           -0.834       15.9994       0
    9349 TIP3 3036 TIP3 H1   HT            0.417         1.008       0
    9350 TIP3 3036 TIP3 H2   HT            0.417         1.008       0
    9351 TIP3 3037 TIP3 OH2  OT           -0.834       15.9994       0
    9352 TIP3 3037 TIP3 H1   HT            0.417         1.008       0
    9353 TIP3 3037 TIP3 H2   HT            0.417         1.008       0
    9354 TIP3 3038 TIP3 OH2  OT           -0.834       15.9994       0
    9355 TIP3 3038 TIP3 H1   HT            0.417         1.008       0
    9356 TIP3 3038 TIP3 H2   HT            0.417         1.008       0
    9357 TIP3 3039 TIP3 OH2  OT           -0.834       15.9994       0
    9358 TIP3 3039 TIP3 H1   HT            0.417         1.008       0
    9359 TIP3 3039 TIP3 H2   HT            0.417         1.008       0
    9360 TIP3 3040 TIP3 OH2  OT           -0.834       15.9994       0
    9361 TIP3 3040 TIP3 H1   HT            0.417         1.008       0
    9362 TIP3 3040 TIP3 H2   HT            0.417         1.008       0
    9363 TIP3 3041 TIP3 OH2  OT           -0.834       15.9994       0
    9364 TIP3 3041 TIP3 H1   HT            0.417         1.008       0
    9365 TIP3 3041 TIP3 H2   HT            0.417         1.008       0
    9366 TIP3 3042 TIP3 OH2  OT           -0.834       15.9994       0
    9367 TIP3 3042 TIP3 H1   HT            0.417         1.008       0
    9368 TIP3 3042 TIP3 H2   HT            0.417         1.008       0
    9369 TIP3 3043 TIP3 OH2  OT           -0.834       15.9994       0
    9370 TIP3 3043 TIP3 H1   HT            0.417         1.008       0
    9371 TIP3 3043 TIP3 H2   HT            0.417         1.008       0
    9372 TIP3 3044 TIP3 OH2  OT           -0.834       15.9994       0
    9373 TIP3 3044 TIP3 H1   HT            0.417         1.008       0
    9374 TIP3 3044 TIP3 H2   HT            0.417         1.008       0
    9375 TIP3 3045 TIP3 OH2  OT           -0.834       15.9994       0
    9376 TIP3 3045 TIP3 H1   HT            0.417         1.008       0
    9377 TIP3 3045 TIP3 H2   HT            0.417         1.008       0
    9378 TIP3 3046 TIP3 OH2  OT           -0.834       15.9994       0
    9379 TIP3 3046 TIP3 H1   HT            0.417         1.008       0
    9380 TIP3 3046 TIP3 H2   HT            0.417         1.008       0
    9381 TIP3 3047 TIP3 OH2  OT           -0.834       15.9994       0
    9382 TIP3 3047 TIP3 H1   HT            0.417         1.008       0
    9383 TIP3 3047 TIP3 H2   HT            0.417         1.008       0
    9384 TIP3 3048 TIP3 OH2  OT           -0.834       15.9994       0
    9385 TIP3 3048 TIP3 H1   HT            0.417         1.008       0
    9386 TIP3 3048 TIP3 H2   HT            0.417         1.008       0
    9387 TIP3 3049 TIP3 OH2  OT           -0.834       15.9994       0
    9388 TIP3 3049 TIP3 H1   HT            0.417         1.008       0
    9389 TIP3 3049 TIP3 H2   HT            0.417         1.008       0
    9390 TIP3 3050 TIP3 OH2  OT           -0.834       15.9994       0
    9391 TIP3 3050 TIP3 H1   HT            0.417         1.008       0
    9392 TIP3 3050 TIP3 H2   HT            0.417         1.008       0
    9393 TIP3 3051 TIP3 OH2  OT           -0.834       15.9994       0
    9394 TIP3 3051 TIP3 H1   HT            0.417         1.008       0
    9395 TIP3 3051 TIP3 H2   HT            0.417         1.008       0
    9396 TIP3 3052 TIP3 OH2  OT           -0.834       15.9994       0
    9397 TIP3 3052 TIP3 H1   HT            0.417         1.008       0
    9398 TIP3 3052 TIP3 H2   HT            0.417         1.008       0
    9399 TIP3 3053 TIP3 OH2  OT           -0.834       15.9994       0
    9400 TIP3 3053 TIP3 H1   HT            0.417         1.008       0
    9401 TIP3 3053 TIP3 H2   HT            0.417         1.008       0
    9402 TIP3 3054 TIP3 OH2  OT           -0.834       15.9994       0
    9403 TIP3 3054 TIP3 H1   HT            0.417         1.008       0
    9404 TIP3 3054 TIP3 H2   HT            0.417         1.008       0
    9405 TIP3 3055 TIP3 OH2  OT           -0.834       15.9994       0
    9406 TIP3 3055 TIP3 H1   HT            0.417         1.008       0
    9407 TIP3 3055 TIP3 H2   HT            0.417         1.008       0
    9408 TIP3 3056 TIP3 OH2  OT           -0.834       15.9994       0
    9409 TIP3 3056 TIP3 H1   HT            0.417         1.008       0
    9410 TIP3 3056 TIP3 H2   HT            0.417         1.008       0
    9411 TIP3 3057 TIP3 OH2  OT           -0.834       15.9994       0
    9412 TIP3 3057 TIP3 H1   HT            0.417         1.008       0
    9413 TIP3 3057 TIP3 H2   HT            0.417         1.008       0
    9414 TIP3 3058 TIP3 OH2  OT           -0.834       15.9994       0
    9415 TIP3 3058 TIP3 H1   HT            0.417         1.008       0
    9416 TIP3 3058 TIP3 H2   HT            0.417         1.008       0
    9417 TIP3 3059 TIP3 OH2  OT           -0.834       15.9994       0
    9418 TIP3 3059 TIP3 H1   HT            0.417         1.008       0
    9419 TIP3 3059 TIP3 H2   HT            0.417         1.008       0
    9420 TIP3 3060 TIP3 OH2  OT           -0.834       15.9994       0
    9421 TIP3 3060 TIP3 H1   HT            0.417         1.008       0
    9422 TIP3 3060 TIP3 H2   HT            0.417         1.008       0
    9423 TIP3 3061 TIP3 OH2  OT           -0.834       15.9994       0
    9424 TIP3 3061 TIP3 H1   HT            0.417         1.008       0
    9425 TIP3 3061 TIP3 H2   HT            0.417         1.008       0
    9426 TIP3 3062 TIP3 OH2  OT           -0.834       15.9994       0
    9427 TIP3 3062 TIP3 H1   HT            0.417         1.008       0
    9428 TIP3 3062 TIP3 H2   HT            0.417         1.008       0
    9429 TIP3 3063 TIP3 OH2  OT           -0.834       15.9994       0
    9430 TIP3 3063 TIP3 H1   HT            0.417         1.008       0
    9431 TIP3 3063 TIP3 H2   HT            0.417         1.008       0
    9432 TIP3 3064 TIP3 OH2  OT           -0.834       15.9994       0
    9433 TIP3 3064 TIP3 H1   HT            0.417         1.008       0
    9434 TIP3 3064 TIP3 H2   HT            0.417         1.008       0
    9435 TIP3 3065 TIP3 OH2  OT           -0.834       15.9994       0
    9436 TIP3 3065 TIP3 H1   HT            0.417         1.008       0
    9437 TIP3 3065 TIP3 H2   HT            0.417         1.008       0
    9438 TIP3 3066 TIP3 OH2  OT           -0.834       15.9994       0
    9439 TIP3 3066 TIP3 H1   HT            0.417         1.008       0
    9440 TIP3 3066 TIP3 H2   HT            0.417         1.008       0
    9441 TIP3 3067 TIP3 OH2  OT           -0.834       15.9994       0
    9442 TIP3 3067 TIP3 H1   HT            0.417         1.008       0
    9443 TIP3 3067 TIP3 H2   HT            0.417         1.008       0
    9444 TIP3 3068 TIP3 OH2  OT           -0.834       15.9994       0
    9445 TIP3 3068 TIP3 H1   HT            0.417         1.008       0
    9446 TIP3 3068 TIP3 H2   HT            0.417         1.008       0
    9447 TIP3 3069 TIP3 OH2  OT           -0.834       15.9994       0
    9448 TIP3 3069 TIP3 H1   HT            0.417         1.008       0
    9449 TIP3 3069 TIP3 H2   HT            0.417         1.008       0
    9450 TIP3 3070 TIP3 OH2  OT           -0.834       15.9994       0
    9451 TIP3 3070 TIP3 H1   HT            0.417         1.008       0
    9452 TIP3 3070 TIP3 H2   HT            0.417         1.008       0
    9453 TIP3 3071 TIP3 OH2  OT           -0.834       15.9994       0
    9454 TIP3 3071 TIP3 H1   HT            0.417         1.008       0
    9455 TIP3 3071 TIP3 H2   HT            0.417         1.008       0
    9456 TIP3 3072 TIP3 OH2  OT           -0.834       15.9994       0
    9457 TIP3 3072 TIP3 H1   HT            0.417         1.008       0
    9458 TIP3 3072 TIP3 H2   HT            0.417         1.008       0
    9459 TIP3 3073 TIP3 OH2  OT           -0.834       15.9994       0
    9460 TIP3 3073 TIP3 H1   HT            0.417         1.008       0
    9461 TIP3 3073 TIP3 H2   HT            0.417         1.008       0
    9462 TIP3 3074 TIP3 OH2  OT           -0.834       15.9994       0
    9463 TIP3 3074 TIP3 H1   HT            0.417         1.008       0
    9464 TIP3 3074 TIP3 H2   HT            0.417         1.008       0
    9465 TIP3 3075 TIP3 OH2  OT           -0.834       15.9994       0
    9466 TIP3 3075 TIP3 H1   HT            0.417         1.008       0
    9467 TIP3 3075 TIP3 H2   HT            0.417         1.008       0
    9468 TIP3 3076 TIP3 OH2  OT           -0.834       15.9994       0
    9469 TIP3 3076 TIP3 H1   HT            0.417         1.008       0
    9470 TIP3 3076 TIP3 H2   HT            0.417         1.008       0
    9471 TIP3 3077 TIP3 OH2  OT           -0.834       15.9994       0
    9472 TIP3 3077 TIP3 H1   HT            0.417         1.008       0
    9473 TIP3 3077 TIP3 H2   HT            0.417         1.008       0
    9474 TIP3 3078 TIP3 OH2  OT           -0.834       15.9994       0
    9475 TIP3 3078 TIP3 H1   HT            0.417         1.008       0
    9476 TIP3 3078 TIP3 H2   HT            0.417         1.008       0
    9477 TIP3 3079 TIP3 OH2  OT           -0.834       15.9994       0
    9478 TIP3 3079 TIP3 H1   HT            0.417         1.008       0
    9479 TIP3 3079 TIP3 H2   HT            0.417         1.008       0
    9480 TIP3 3080 TIP3 OH2  OT           -0.834       15.9994       0
    9481 TIP3 3080 TIP3 H1   HT            0.417         1.008       0
    9482 TIP3 3080 TIP3 H2   HT            0.417         1.008       0
    9483 TIP3 3081 TIP3 OH2  OT           -0.834       15.9994       0
    9484 TIP3 3081 TIP3 H1   HT            0.417         1.008       0
    9485 TIP3 3081 TIP3 H2   HT            0.417         1.008       0
    9486 TIP3 3082 TIP3 OH2  OT           -0.834       15.9994       0
    9487 TIP3 3082 TIP3 H1   HT            0.417         1.008       0
    9488 TIP3 3082 TIP3 H2   HT            0.417         1.008       0
    9489 TIP3 3083 TIP3 OH2  OT           -0.834       15.9994       0
    9490 TIP3 3083 TIP3 H1   HT            0.417         1.008       0
    9491 TIP3 3083 TIP3 H2   HT            0.417         1.008       0
    9492 TIP3 3084 TIP3 OH2  OT           -0.834       15.9994       0
    9493 TIP3 3084 TIP3 H1   HT            0.417         1.008       0
    9494 TIP3 3084 TIP3 H2   HT            0.417         1.008       0
    9495 TIP3 3085 TIP3 OH2  OT           -0.834       15.9994       0
    9496 TIP3 3085 TIP3 H1   HT            0.417         1.008       0
    9497 TIP3 3085 TIP3 H2   HT            0.417         1.008       0
    9498 TIP3 3086 TIP3 OH2  OT           -0.834       15.9994       0
    9499 TIP3 3086 TIP3 H1   HT            0.417         1.008       0
    9500 TIP3 3086 TIP3 H2   HT            0.417         1.008       0
    9501 TIP3 3087 TIP3 OH2  OT           -0.834       15.9994       0
    9502 TIP3 3087 TIP3 H1   HT            0.417         1.008       0
    9503 TIP3 3087 TIP3 H2   HT            0.417         1.008       0
    9504 TIP3 3088 TIP3 OH2  OT           -0.834       15.9994       0
    9505 TIP3 3088 TIP3 H1   HT            0.417         1.008       0
    9506 TIP3 3088 TIP3 H2   HT            0.417         1.008       0
    9507 TIP3 3089 TIP3 OH2  OT           -0.834       15.9994       0
    9508 TIP3 3089 TIP3 H1   HT            0.417         1.008       0
    9509 TIP3 3089 TIP3 H2   HT            0.417         1.008       0
    9510 TIP3 3090 TIP3 OH2  OT           -0.834       15.9994       0
    9511 TIP3 3090 TIP3 H1   HT            0.417         1.008       0
    9512 TIP3 3090 TIP3 H2   HT            0.417         1.008       0
    9513 TIP3 3091 TIP3 OH2  OT           -0.834       15.9994       0
    9514 TIP3 3091 TIP3 H1   HT            0.417         1.008       0
    9515 TIP3 3091 TIP3 H2   HT            0.417         1.008       0
    9516 TIP3 3092 TIP3 OH2  OT           -0.834       15.9994       0
    9517 TIP3 3092 TIP3 H1   HT            0.417         1.008       0
    9518 TIP3 3092 TIP3 H2   HT            0.417         1.008       0
    9519 TIP3 3093 TIP3 OH2  OT           -0.834       15.9994       0
    9520 TIP3 3093 TIP3 H1   HT            0.417         1.008       0
    9521 TIP3 3093 TIP3 H2   HT            0.417         1.008       0
    9522 TIP3 3094 TIP3 OH2  OT           -0.834       15.9994       0
    9523 TIP3 3094 TIP3 H1   HT            0.417         1.008       0
    9524 TIP3 3094 TIP3 H2   HT            0.417         1.008       0
    9525 TIP3 3095 TIP3 OH2  OT           -0.834       15.9994       0
    9526 TIP3 3095 TIP3 H1   HT            0.417         1.008       0
    9527 TIP3 3095 TIP3 H2   HT            0.417         1.008       0
    9528 TIP3 3096 TIP3 OH2  OT           -0.834       15.9994       0
    9529 TIP3 3096 TIP3 H1   HT            0.417         1.008       0
    9530 TIP3 3096 TIP3 H2   HT            0.417         1.008       0
    9531 TIP3 3097 TIP3 OH2  OT           -0.834       15.9994       0
    9532 TIP3 3097 TIP3 H1   HT            0.417         1.008       0
    9533 TIP3 3097 TIP3 H2   HT            0.417         1.008       0
    9534 TIP3 3098 TIP3 OH2  OT           -0.834       15.9994       0
    9535 TIP3 3098 TIP3 H1   HT            0.417         1.008       0
    9536 TIP3 3098 TIP3 H2   HT            0.417         1.008       0
    9537 TIP3 3099 TIP3 OH2  OT           -0.834       15.9994       0
    9538 TIP3 3099 TIP3 H1   HT            0.417         1.008       0
    9539 TIP3 3099 TIP3 H2   HT            0.417         1.008       0
    9540 TIP3 3100 TIP3 OH2  OT           -0.834       15.9994       0
    9541 TIP3 3100 TIP3 H1   HT            0.417         1.008       0
    9542 TIP3 3100 TIP3 H2   HT            0.417         1.008       0
    9543 TIP3 3101 TIP3 OH2  OT           -0.834       15.9994       0
    9544 TIP3 3101 TIP3 H1   HT            0.417         1.008       0
    9545 TIP3 3101 TIP3 H2   HT            0.417         1.008       0
    9546 TIP3 3102 TIP3 OH2  OT           -0.834       15.9994       0
    9547 TIP3 3102 TIP3 H1   HT            0.417         1.008       0
    9548 TIP3 3102 TIP3 H2   HT            0.417         1.008       0
    9549 TIP3 3103 TIP3 OH2  OT           -0.834       15.9994       0
    9550 TIP3 3103 TIP3 H1   HT            0.417         1.008       0
    9551 TIP3 3103 TIP3 H2   HT            0.417         1.008       0
    9552 TIP3 3104 TIP3 OH2  OT           -0.834       15.9994       0
    9553 TIP3 3104 TIP3 H1   HT            0.417         1.008       0
    9554 TIP3 3104 TIP3 H2   HT            0.417         1.008       0
    9555 TIP3 3105 TIP3 OH2  OT           -0.834       15.9994       0
    9556 TIP3 3105 TIP3 H1   HT            0.417         1.008       0
    9557 TIP3 3105 TIP3 H2   HT            0.417         1.008       0
    9558 TIP3 3106 TIP3 OH2  OT           -0.834       15.9994       0
    9559 TIP3 3106 TIP3 H1   HT            0.417         1.008       0
    9560 TIP3 3106 TIP3 H2   HT            0.417         1.008       0
    9561 TIP3 3107 TIP3 OH2  OT           -0.834       15.9994       0
    9562 TIP3 3107 TIP3 H1   HT            0.417         1.008       0
    9563 TIP3 3107 TIP3 H2   HT            0.417         1.008       0
    9564 TIP3 3108 TIP3 OH2  OT           -0.834       15.9994       0
    9565 TIP3 3108 TIP3 H1   HT            0.417         1.008       0
    9566 TIP3 3108 TIP3 H2   HT            0.417         1.008       0
    9567 TIP3 3109 TIP3 OH2  OT           -0.834       15.9994       0
    9568 TIP3 3109 TIP3 H1   HT            0.417         1.008       0
    9569 TIP3 3109 TIP3 H2   HT            0.417         1.008       0
    9570 TIP3 3110 TIP3 OH2  OT           -0.834       15.9994       0
    9571 TIP3 3110 TIP3 H1   HT            0.417         1.008       0
    9572 TIP3 3110 TIP3 H2   HT            0.417         1.008       0
    9573 TIP3 3111 TIP3 OH2  OT           -0.834       15.9994       0
    9574 TIP3 3111 TIP3 H1   HT            0.417         1.008       0
    9575 TIP3 3111 TIP3 H2   HT            0.417         1.008       0
    9576 TIP3 3112 TIP3 OH2  OT           -0.834       15.9994       0
    9577 TIP3 3112 TIP3 H1   HT            0.417         1.008       0
    9578 TIP3 3112 TIP3 H2   HT            0.417         1.008       0
    9579 TIP3 3113 TIP3 OH2  OT           -0.834       15.9994       0
    9580 TIP3 3113 TIP3 H1   HT            0.417         1.008       0
    9581 TIP3 3113 TIP3 H2   HT            0.417         1.008       0
    9582 TIP3 3114 TIP3 OH2  OT           -0.834       15.9994       0
    9583 TIP3 3114 TIP3 H1   HT            0.417         1.008       0
    9584 TIP3 3114 TIP3 H2   HT            0.417         1.008       0
    9585 TIP3 3115 TIP3 OH2  OT           -0.834       15.9994       0
    9586 TIP3 3115 TIP3 H1   HT            0.417         1.008       0
    9587 TIP3 3115 TIP3 H2   HT            0.417         1.008       0
    9588 TIP3 3116 TIP3 OH2  OT           -0.834       15.9994       0
    9589 TIP3 3116 TIP3 H1   HT            0.417         1.008       0
    9590 TIP3 3116 TIP3 H2   HT            0.417         1.008       0
    9591 TIP3 3117 TIP3 OH2  OT           -0.834       15.9994       0
    9592 TIP3 3117 TIP3 H1   HT            0.417         1.008       0
    9593 TIP3 3117 TIP3 H2   HT            0.417         1.008       0
    9594 TIP3 3118 TIP3 OH2  OT           -0.834       15.9994       0
    9595 TIP3 3118 TIP3 H1   HT            0.417         1.008       0
    9596 TIP3 3118 TIP3 H2   HT            0.417         1.008       0
    9597 TIP3 3119 TIP3 OH2  OT           -0.834       15.9994       0
    9598 TIP3 3119 TIP3 H1   HT            0.417         1.008       0
    9599 TIP3 3119 TIP3 H2   HT            0.417         1.008       0
    9600 TIP3 3120 TIP3 OH2  OT           -0.834       15.9994       0
    9601 TIP3 3120 TIP3 H1   HT            0.417         1.008       0
    9602 TIP3 3120 TIP3 H2   HT            0.417         1.008       0
    9603 TIP3 3121 TIP3 OH2  OT           -0.834       15.9994       0
    9604 TIP3 3121 TIP3 H1   HT            0.417         1.008       0
    9605 TIP3 3121 TIP3 H2   HT            0.417         1.008       0
    9606 TIP3 3122 TIP3 OH2  OT           -0.834       15.9994       0
    9607 TIP3 3122 TIP3 H1   HT            0.417         1.008       0
    9608 TIP3 3122 TIP3 H2   HT            0.417         1.008       0
    9609 TIP3 3123 TIP3 OH2  OT           -0.834       15.9994       0
    9610 TIP3 3123 TIP3 H1   HT            0.417         1.008       0
    9611 TIP3 3123 TIP3 H2   HT            0.417         1.008       0
    9612 TIP3 3124 TIP3 OH2  OT           -0.834       15.9994       0
    9613 TIP3 3124 TIP3 H1   HT            0.417         1.008       0
    9614 TIP3 3124 TIP3 H2   HT            0.417         1.008       0
    9615 TIP3 3125 TIP3 OH2  OT           -0.834       15.9994       0
    9616 TIP3 3125 TIP3 H1   HT            0.417         1.008       0
    9617 TIP3 3125 TIP3 H2   HT            0.417         1.008       0
    9618 TIP3 3126 TIP3 OH2  OT           -0.834       15.9994       0
    9619 TIP3 3126 TIP3 H1   HT            0.417         1.008       0
    9620 TIP3 3126 TIP3 H2   HT            0.417         1.008       0
    9621 TIP3 3127 TIP3 OH2  OT           -0.834       15.9994       0
    9622 TIP3 3127 TIP3 H1   HT            0.417         1.008       0
    9623 TIP3 3127 TIP3 H2   HT            0.417         1.008       0
    9624 TIP3 3128 TIP3 OH2  OT           -0.834       15.9994       0
    9625 TIP3 3128 TIP3 H1   HT            0.417         1.008       0
    9626 TIP3 3128 TIP3 H2   HT            0.417         1.008       0
    9627 TIP3 3129 TIP3 OH2  OT           -0.834       15.9994       0
    9628 TIP3 3129 TIP3 H1   HT            0.417         1.008       0
    9629 TIP3 3129 TIP3 H2   HT            0.417         1.008       0
    9630 TIP3 3130 TIP3 OH2  OT           -0.834       15.9994       0
    9631 TIP3 3130 TIP3 H1   HT            0.417         1.008       0
    9632 TIP3 3130 TIP3 H2   HT            0.417         1.008       0
    9633 TIP3 3131 TIP3 OH2  OT           -0.834       15.9994       0
    9634 TIP3 3131 TIP3 H1   HT            0.417         1.008       0
    9635 TIP3 3131 TIP3 H2   HT            0.417         1.008       0
    9636 TIP3 3132 TIP3 OH2  OT           -0.834       15.9994       0
    9637 TIP3 3132 TIP3 H1   HT            0.417         1.008       0
    9638 TIP3 3132 TIP3 H2   HT            0.417         1.008       0
    9639 TIP3 3133 TIP3 OH2  OT           -0.834       15.9994       0
    9640 TIP3 3133 TIP3 H1   HT            0.417         1.008       0
    9641 TIP3 3133 TIP3 H2   HT            0.417         1.008       0
    9642 TIP3 3134 TIP3 OH2  OT           -0.834       15.9994       0
    9643 TIP3 3134 TIP3 H1   HT            0.417         1.008       0
    9644 TIP3 3134 TIP3 H2   HT            0.417         1.008       0
    9645 TIP3 3135 TIP3 OH2  OT           -0.834       15.9994       0
    9646 TIP3 3135 TIP3 H1   HT            0.417         1.008       0
    9647 TIP3 3135 TIP3 H2   HT            0.417         1.008       0
    9648 TIP3 3136 TIP3 OH2  OT           -0.834       15.9994       0
    9649 TIP3 3136 TIP3 H1   HT            0.417         1.008       0
    9650 TIP3 3136 TIP3 H2   HT            0.417         1.008       0
    9651 TIP3 3137 TIP3 OH2  OT           -0.834       15.9994       0
    9652 TIP3 3137 TIP3 H1   HT            0.417         1.008       0
    9653 TIP3 3137 TIP3 H2   HT            0.417         1.008       0
    9654 TIP3 3138 TIP3 OH2  OT           -0.834       15.9994       0
    9655 TIP3 3138 TIP3 H1   HT            0.417         1.008       0
    9656 TIP3 3138 TIP3 H2   HT            0.417         1.008       0
    9657 TIP3 3139 TIP3 OH2  OT           -0.834       15.9994       0
    9658 TIP3 3139 TIP3 H1   HT            0.417         1.008       0
    9659 TIP3 3139 TIP3 H2   HT            0.417         1.008       0
    9660 TIP3 3140 TIP3 OH2  OT           -0.834       15.9994       0
    9661 TIP3 3140 TIP3 H1   HT            0.417         1.008       0
    9662 TIP3 3140 TIP3 H2   HT            0.417         1.008       0
    9663 TIP3 3141 TIP3 OH2  OT           -0.834       15.9994       0
    9664 TIP3 3141 TIP3 H1   HT            0.417         1.008       0
    9665 TIP3 3141 TIP3 H2   HT            0.417         1.008       0
    9666 TIP3 3142 TIP3 OH2  OT           -0.834       15.9994       0
    9667 TIP3 3142 TIP3 H1   HT            0.417         1.008       0
    9668 TIP3 3142 TIP3 H2   HT            0.417         1.008       0
    9669 TIP3 3143 TIP3 OH2  OT           -0.834       15.9994       0
    9670 TIP3 3143 TIP3 H1   HT            0.417         1.008       0
    9671 TIP3 3143 TIP3 H2   HT            0.417         1.008       0
    9672 TIP3 3144 TIP3 OH2  OT           -0.834       15.9994       0
    9673 TIP3 3144 TIP3 H1   HT            0.417         1.008       0
    9674 TIP3 3144 TIP3 H2   HT            0.417         1.008       0
    9675 TIP3 3145 TIP3 OH2  OT           -0.834       15.9994       0
    9676 TIP3 3145 TIP3 H1   HT            0.417         1.008       0
    9677 TIP3 3145 TIP3 H2   HT            0.417         1.008       0
    9678 TIP3 3146 TIP3 OH2  OT           -0.834       15.9994       0
    9679 TIP3 3146 TIP3 H1   HT            0.417         1.008       0
    9680 TIP3 3146 TIP3 H2   HT            0.417         1.008       0
    9681 TIP3 3147 TIP3 OH2  OT           -0.834       15.9994       0
    9682 TIP3 3147 TIP3 H1   HT            0.417         1.008       0
    9683 TIP3 3147 TIP3 H2   HT            0.417         1.008       0
    9684 TIP3 3148 TIP3 OH2  OT           -0.834       15.9994       0
    9685 TIP3 3148 TIP3 H1   HT            0.417         1.008       0
    9686 TIP3 3148 TIP3 H2   HT            0.417         1.008       0
    9687 TIP3 3149 TIP3 OH2  OT           -0.834       15.9994       0
    9688 TIP3 3149 TIP3 H1   HT            0.417         1.008       0
    9689 TIP3 3149 TIP3 H2   HT            0.417         1.008       0
    9690 TIP3 3150 TIP3 OH2  OT           -0.834       15.9994       0
    9691 TIP3 3150 TIP3 H1   HT            0.417         1.008       0
    9692 TIP3 3150 TIP3 H2   HT            0.417         1.008       0
    9693 TIP3 3151 TIP3 OH2  OT           -0.834       15.9994       0
    9694 TIP3 3151 TIP3 H1   HT            0.417         1.008       0
    9695 TIP3 3151 TIP3 H2   HT            0.417         1.008       0
    9696 TIP3 3152 TIP3 OH2  OT           -0.834       15.9994       0
    9697 TIP3 3152 TIP3 H1   HT            0.417         1.008       0
    9698 TIP3 3152 TIP3 H2   HT            0.417         1.008       0
    9699 TIP3 3153 TIP3 OH2  OT           -0.834       15.9994       0
    9700 TIP3 3153 TIP3 H1   HT            0.417         1.008       0
    9701 TIP3 3153 TIP3 H2   HT            0.417         1.008       0
    9702 TIP3 3154 TIP3 OH2  OT           -0.834       15.9994       0
    9703 TIP3 3154 TIP3 H1   HT            0.417         1.008       0
    9704 TIP3 3154 TIP3 H2   HT            0.417         1.008       0
    9705 TIP3 3155 TIP3 OH2  OT           -0.834       15.9994       0
    9706 TIP3 3155 TIP3 H1   HT            0.417         1.008       0
    9707 TIP3 3155 TIP3 H2   HT            0.417         1.008       0
    9708 TIP3 3156 TIP3 OH2  OT           -0.834       15.9994       0
    9709 TIP3 3156 TIP3 H1   HT            0.417         1.008       0
    9710 TIP3 3156 TIP3 H2   HT            0.417         1.008       0
    9711 TIP3 3157 TIP3 OH2  OT           -0.834       15.9994       0
    9712 TIP3 3157 TIP3 H1   HT            0.417         1.008       0
    9713 TIP3 3157 TIP3 H2   HT            0.417         1.008       0
    9714 TIP3 3158 TIP3 OH2  OT           -0.834       15.9994       0
    9715 TIP3 3158 TIP3 H1   HT            0.417         1.008       0
    9716 TIP3 3158 TIP3 H2   HT            0.417         1.008       0
    9717 TIP3 3159 TIP3 OH2  OT           -0.834       15.9994       0
    9718 TIP3 3159 TIP3 H1   HT            0.417         1.008       0
    9719 TIP3 3159 TIP3 H2   HT            0.417         1.008       0
    9720 TIP3 3160 TIP3 OH2  OT           -0.834       15.9994       0
    9721 TIP3 3160 TIP3 H1   HT            0.417         1.008       0
    9722 TIP3 3160 TIP3 H2   HT            0.417         1.008       0
    9723 TIP3 3161 TIP3 OH2  OT           -0.834       15.9994       0
    9724 TIP3 3161 TIP3 H1   HT            0.417         1.008       0
    9725 TIP3 3161 TIP3 H2   HT            0.417         1.008       0
    9726 TIP3 3162 TIP3 OH2  OT           -0.834       15.9994       0
    9727 TIP3 3162 TIP3 H1   HT            0.417         1.008       0
    9728 TIP3 3162 TIP3 H2   HT            0.417         1.008       0
    9729 TIP3 3163 TIP3 OH2  OT           -0.834       15.9994       0
    9730 TIP3 3163 TIP3 H1   HT            0.417         1.008       0
    9731 TIP3 3163 TIP3 H2   HT            0.417         1.008       0
    9732 TIP3 3164 TIP3 OH2  OT           -0.834       15.9994       0
    9733 TIP3 3164 TIP3 H1   HT            0.417         1.008       0
    9734 TIP3 3164 TIP3 H2   HT            0.417         1.008       0
    9735 TIP3 3165 TIP3 OH2  OT           -0.834       15.9994       0
    9736 TIP3 3165 TIP3 H1   HT            0.417         1.008       0
    9737 TIP3 3165 TIP3 H2   HT            0.417         1.008       0
    9738 TIP3 3166 TIP3 OH2  OT           -0.834       15.9994       0
    9739 TIP3 3166 TIP3 H1   HT            0.417         1.008       0
    9740 TIP3 3166 TIP3 H2   HT            0.417         1.008       0
    9741 TIP3 3167 TIP3 OH2  OT           -0.834       15.9994       0
    9742 TIP3 3167 TIP3 H1   HT            0.417         1.008       0
    9743 TIP3 3167 TIP3 H2   HT            0.417         1.008       0
    9744 TIP3 3168 TIP3 OH2  OT           -0.834       15.9994       0
    9745 TIP3 3168 TIP3 H1   HT            0.417         1.008       0
    9746 TIP3 3168 TIP3 H2   HT            0.417         1.008       0
    9747 TIP3 3169 TIP3 OH2  OT           -0.834       15.9994       0
    9748 TIP3 3169 TIP3 H1   HT            0.417         1.008       0
    9749 TIP3 3169 TIP3 H2   HT            0.417         1.008       0
    9750 TIP3 3170 TIP3 OH2  OT           -0.834       15.9994       0
    9751 TIP3 3170 TIP3 H1   HT            0.417         1.008       0
    9752 TIP3 3170 TIP3 H2   HT            0.417         1.008       0
    9753 TIP3 3171 TIP3 OH2  OT           -0.834       15.9994       0
    9754 TIP3 3171 TIP3 H1   HT            0.417         1.008       0
    9755 TIP3 3171 TIP3 H2   HT            0.417         1.008       0
    9756 TIP3 3172 TIP3 OH2  OT           -0.834       15.9994       0
    9757 TIP3 3172 TIP3 H1   HT            0.417         1.008       0
    9758 TIP3 3172 TIP3 H2   HT            0.417         1.008       0
    9759 TIP3 3173 TIP3 OH2  OT           -0.834       15.9994       0
    9760 TIP3 3173 TIP3 H1   HT            0.417         1.008       0
    9761 TIP3 3173 TIP3 H2   HT            0.417         1.008       0
    9762 TIP3 3174 TIP3 OH2  OT           -0.834       15.9994       0
    9763 TIP3 3174 TIP3 H1   HT            0.417         1.008       0
    9764 TIP3 3174 TIP3 H2   HT            0.417         1.008       0
    9765 TIP3 3175 TIP3 OH2  OT           -0.834       15.9994       0
    9766 TIP3 3175 TIP3 H1   HT            0.417         1.008       0
    9767 TIP3 3175 TIP3 H2   HT            0.417         1.008       0
    9768 TIP3 3176 TIP3 OH2  OT           -0.834       15.9994       0
    9769 TIP3 3176 TIP3 H1   HT            0.417         1.008       0
    9770 TIP3 3176 TIP3 H2   HT            0.417         1.008       0
    9771 TIP3 3177 TIP3 OH2  OT           -0.834       15.9994       0
    9772 TIP3 3177 TIP3 H1   HT            0.417         1.008       0
    9773 TIP3 3177 TIP3 H2   HT            0.417         1.008       0
    9774 TIP3 3178 TIP3 OH2  OT           -0.834       15.9994       0
    9775 TIP3 3178 TIP3 H1   HT            0.417         1.008       0
    9776 TIP3 3178 TIP3 H2   HT            0.417         1.008       0
    9777 TIP3 3179 TIP3 OH2  OT           -0.834       15.9994       0
    9778 TIP3 3179 TIP3 H1   HT            0.417         1.008       0
    9779 TIP3 3179 TIP3 H2   HT            0.417         1.008       0
    9780 TIP3 3180 TIP3 OH2  OT           -0.834       15.9994       0
    9781 TIP3 3180 TIP3 H1   HT            0.417         1.008       0
    9782 TIP3 3180 TIP3 H2   HT            0.417         1.008       0
    9783 TIP3 3181 TIP3 OH2  OT           -0.834       15.9994       0
    9784 TIP3 3181 TIP3 H1   HT            0.417         1.008       0
    9785 TIP3 3181 TIP3 H2   HT            0.417         1.008       0
    9786 TIP3 3182 TIP3 OH2  OT           -0.834       15.9994       0
    9787 TIP3 3182 TIP3 H1   HT            0.417         1.008       0
    9788 TIP3 3182 TIP3 H2   HT            0.417         1.008       0
    9789 TIP3 3183 TIP3 OH2  OT           -0.834       15.9994       0
    9790 TIP3 3183 TIP3 H1   HT            0.417         1.008       0
    9791 TIP3 3183 TIP3 H2   HT            0.417         1.008       0
    9792 TIP3 3184 TIP3 OH2  OT           -0.834       15.9994       0
    9793 TIP3 3184 TIP3 H1   HT            0.417         1.008       0
    9794 TIP3 3184 TIP3 H2   HT            0.417         1.008       0
    9795 TIP3 3185 TIP3 OH2  OT           -0.834       15.9994       0
    9796 TIP3 3185 TIP3 H1   HT            0.417         1.008       0
    9797 TIP3 3185 TIP3 H2   HT            0.417         1.008       0
    9798 TIP3 3186 TIP3 OH2  OT           -0.834       15.9994       0
    9799 TIP3 3186 TIP3 H1   HT            0.417         1.008       0
    9800 TIP3 3186 TIP3 H2   HT            0.417         1.008       0
    9801 TIP3 3187 TIP3 OH2  OT           -0.834       15.9994       0
    9802 TIP3 3187 TIP3 H1   HT            0.417         1.008       0
    9803 TIP3 3187 TIP3 H2   HT            0.417         1.008       0
    9804 TIP3 3188 TIP3 OH2  OT           -0.834       15.9994       0
    9805 TIP3 3188 TIP3 H1   HT            0.417         1.008       0
    9806 TIP3 3188 TIP3 H2   HT            0.417         1.008       0
    9807 TIP3 3189 TIP3 OH2  OT           -0.834       15.9994       0
    9808 TIP3 3189 TIP3 H1   HT            0.417         1.008       0
    9809 TIP3 3189 TIP3 H2   HT            0.417         1.008       0
    9810 TIP3 3190 TIP3 OH2  OT           -0.834       15.9994       0
    9811 TIP3 3190 TIP3 H1   HT            0.417         1.008       0
    9812 TIP3 3190 TIP3 H2   HT            0.417         1.008       0
    9813 TIP3 3191 TIP3 OH2  OT           -0.834       15.9994       0
    9814 TIP3 3191 TIP3 H1   HT            0.417         1.008       0
    9815 TIP3 3191 TIP3 H2   HT            0.417         1.008       0
    9816 TIP3 3192 TIP3 OH2  OT           -0.834       15.9994       0
    9817 TIP3 3192 TIP3 H1   HT            0.417         1.008       0
    9818 TIP3 3192 TIP3 H2   HT            0.417         1.008       0
    9819 TIP3 3193 TIP3 OH2  OT           -0.834       15.9994       0
    9820 TIP3 3193 TIP3 H1   HT            0.417         1.008       0
    9821 TIP3 3193 TIP3 H2   HT            0.417         1.008       0
    9822 TIP3 3194 TIP3 OH2  OT           -0.834       15.9994       0
    9823 TIP3 3194 TIP3 H1   HT            0.417         1.008       0
    9824 TIP3 3194 TIP3 H2   HT            0.417         1.008       0
    9825 TIP3 3195 TIP3 OH2  OT           -0.834       15.9994       0
    9826 TIP3 3195 TIP3 H1   HT            0.417         1.008       0
    9827 TIP3 3195 TIP3 H2   HT            0.417         1.008       0
    9828 TIP3 3196 TIP3 OH2  OT           -0.834       15.9994       0
    9829 TIP3 3196 TIP3 H1   HT            0.417         1.008       0
    9830 TIP3 3196 TIP3 H2   HT            0.417         1.008       0
    9831 TIP3 3197 TIP3 OH2  OT           -0.834       15.9994       0
    9832 TIP3 3197 TIP3 H1   HT            0.417         1.008       0
    9833 TIP3 3197 TIP3 H2   HT            0.417         1.008       0
    9834 TIP3 3198 TIP3 OH2  OT           -0.834       15.9994       0
    9835 TIP3 3198 TIP3 H1   HT            0.417         1.008       0
    9836 TIP3 3198 TIP3 H2   HT            0.417         1.008       0
    9837 TIP3 3199 TIP3 OH2  OT           -0.834       15.9994       0
    9838 TIP3 3199 TIP3 H1   HT            0.417         1.008       0
    9839 TIP3 3199 TIP3 H2   HT            0.417         1.008       0
    9840 TIP3 3200 TIP3 OH2  OT           -0.834       15.9994       0
    9841 TIP3 3200 TIP3 H1   HT            0.417         1.008       0
    9842 TIP3 3200 TIP3 H2   HT            0.417         1.008       0
    9843 TIP3 3201 TIP3 OH2  OT           -0.834       15.9994       0
    9844 TIP3 3201 TIP3 H1   HT            0.417         1.008       0
    9845 TIP3 3201 TIP3 H2   HT            0.417         1.008       0
    9846 TIP3 3202 TIP3 OH2  OT           -0.834       15.9994       0
    9847 TIP3 3202 TIP3 H1   HT            0.417         1.008       0
    9848 TIP3 3202 TIP3 H2   HT            0.417         1.008       0
    9849 TIP3 3203 TIP3 OH2  OT           -0.834       15.9994       0
    9850 TIP3 3203 TIP3 H1   HT            0.417         1.008       0
    9851 TIP3 3203 TIP3 H2   HT            0.417         1.008       0
    9852 TIP3 3204 TIP3 OH2  OT           -0.834       15.9994       0
    9853 TIP3 3204 TIP3 H1   HT            0.417         1.008       0
    9854 TIP3 3204 TIP3 H2   HT            0.417         1.008       0
    9855 TIP3 3205 TIP3 OH2  OT           -0.834       15.9994       0
    9856 TIP3 3205 TIP3 H1   HT            0.417         1.008       0
    9857 TIP3 3205 TIP3 H2   HT            0.417         1.008       0
    9858 TIP3 3206 TIP3 OH2  OT           -0.834       15.9994       0
    9859 TIP3 3206 TIP3 H1   HT            0.417         1.008       0
    9860 TIP3 3206 TIP3 H2   HT            0.417         1.008       0
    9861 TIP3 3207 TIP3 OH2  OT           -0.834       15.9994       0
    9862 TIP3 3207 TIP3 H1   HT            0.417         1.008       0
    9863 TIP3 3207 TIP3 H2   HT            0.417         1.008       0
    9864 TIP3 3208 TIP3 OH2  OT           -0.834       15.9994       0
    9865 TIP3 3208 TIP3 H1   HT            0.417         1.008       0
    9866 TIP3 3208 TIP3 H2   HT            0.417         1.008       0
    9867 TIP3 3209 TIP3 OH2  OT           -0.834       15.9994       0
    9868 TIP3 3209 TIP3 H1   HT            0.417         1.008       0
    9869 TIP3 3209 TIP3 H2   HT            0.417         1.008       0
    9870 TIP3 3210 TIP3 OH2  OT           -0.834       15.9994       0
    9871 TIP3 3210 TIP3 H1   HT            0.417         1.008       0
    9872 TIP3 3210 TIP3 H2   HT            0.417         1.008       0
    9873 TIP3 3211 TIP3 OH2  OT           -0.834       15.9994       0
    9874 TIP3 3211 TIP3 H1   HT            0.417         1.008       0
    9875 TIP3 3211 TIP3 H2   HT            0.417         1.008       0
    9876 TIP3 3212 TIP3 OH2  OT           -0.834       15.9994       0
    9877 TIP3 3212 TIP3 H1   HT            0.417         1.008       0
    9878 TIP3 3212 TIP3 H2   HT            0.417         1.008       0
    9879 TIP3 3213 TIP3 OH2  OT           -0.834       15.9994       0
    9880 TIP3 3213 TIP3 H1   HT            0.417         1.008       0
    9881 TIP3 3213 TIP3 H2   HT            0.417         1.008       0
    9882 TIP3 3214 TIP3 OH2  OT           -0.834       15.9994       0
    9883 TIP3 3214 TIP3 H1   HT            0.417         1.008       0
    9884 TIP3 3214 TIP3 H2   HT            0.417         1.008       0
    9885 TIP3 3215 TIP3 OH2  OT           -0.834       15.9994       0
    9886 TIP3 3215 TIP3 H1   HT            0.417         1.008       0
    9887 TIP3 3215 TIP3 H2   HT            0.417         1.008       0
    9888 TIP3 3216 TIP3 OH2  OT           -0.834       15.9994       0
    9889 TIP3 3216 TIP3 H1   HT            0.417         1.008       0
    9890 TIP3 3216 TIP3 H2   HT            0.417         1.008       0
    9891 TIP3 3217 TIP3 OH2  OT           -0.834       15.9994       0
    9892 TIP3 3217 TIP3 H1   HT            0.417         1.008       0
    9893 TIP3 3217 TIP3 H2   HT            0.417         1.008       0
    9894 TIP3 3218 TIP3 OH2  OT           -0.834       15.9994       0
    9895 TIP3 3218 TIP3 H1   HT            0.417         1.008       0
    9896 TIP3 3218 TIP3 H2   HT            0.417         1.008       0
    9897 TIP3 3219 TIP3 OH2  OT           -0.834       15.9994       0
    9898 TIP3 3219 TIP3 H1   HT            0.417         1.008       0
    9899 TIP3 3219 TIP3 H2   HT            0.417         1.008       0
    9900 TIP3 3220 TIP3 OH2  OT           -0.834       15.9994       0
    9901 TIP3 3220 TIP3 H1   HT            0.417         1.008       0
    9902 TIP3 3220 TIP3 H2   HT            0.417         1.008       0
    9903 TIP3 3221 TIP3 OH2  OT           -0.834       15.9994       0
    9904 TIP3 3221 TIP3 H1   HT            0.417         1.008       0
    9905 TIP3 3221 TIP3 H2   HT            0.417         1.008       0
    9906 TIP3 3222 TIP3 OH2  OT           -0.834       15.9994       0
    9907 TIP3 3222 TIP3 H1   HT            0.417         1.008       0
    9908 TIP3 3222 TIP3 H2   HT            0.417         1.008       0
    9909 TIP3 3223 TIP3 OH2  OT           -0.834       15.9994       0
    9910 TIP3 3223 TIP3 H1   HT            0.417         1.008       0
    9911 TIP3 3223 TIP3 H2   HT            0.417         1.008       0
    9912 TIP3 3224 TIP3 OH2  OT           -0.834       15.9994       0
    9913 TIP3 3224 TIP3 H1   HT            0.417         1.008       0
    9914 TIP3 3224 TIP3 H2   HT            0.417         1.008       0
    9915 TIP3 3225 TIP3 OH2  OT           -0.834       15.9994       0
    9916 TIP3 3225 TIP3 H1   HT            0.417         1.008       0
    9917 TIP3 3225 TIP3 H2   HT            0.417         1.008       0
    9918 TIP3 3226 TIP3 OH2  OT           -0.834       15.9994       0
    9919 TIP3 3226 TIP3 H1   HT            0.417         1.008       0
    9920 TIP3 3226 TIP3 H2   HT            0.417         1.008       0
    9921 TIP3 3227 TIP3 OH2  OT           -0.834       15.9994       0
    9922 TIP3 3227 TIP3 H1   HT            0.417         1.008       0
    9923 TIP3 3227 TIP3 H2   HT            0.417         1.008       0
    9924 TIP3 3228 TIP3 OH2  OT           -0.834       15.9994       0
    9925 TIP3 3228 TIP3 H1   HT            0.417         1.008       0
    9926 TIP3 3228 TIP3 H2   HT            0.417         1.008       0
    9927 TIP3 3229 TIP3 OH2  OT           -0.834       15.9994       0
    9928 TIP3 3229 TIP3 H1   HT            0.417         1.008       0
    9929 TIP3 3229 TIP3 H2   HT            0.417         1.008       0
    9930 TIP3 3230 TIP3 OH2  OT           -0.834       15.9994       0
    9931 TIP3 3230 TIP3 H1   HT            0.417         1.008       0
    9932 TIP3 3230 TIP3 H2   HT            0.417         1.008       0
    9933 TIP3 3231 TIP3 OH2  OT           -0.834       15.9994       0
    9934 TIP3 3231 TIP3 H1   HT            0.417         1.008       0
    9935 TIP3 3231 TIP3 H2   HT            0.417         1.008       0
    9936 TIP3 3232 TIP3 OH2  OT           -0.834       15.9994       0
    9937 TIP3 3232 TIP3 H1   HT            0.417         1.008       0
    9938 TIP3 3232 TIP3 H2   HT            0.417         1.008       0
    9939 TIP3 3233 TIP3 OH2  OT           -0.834       15.9994       0
    9940 TIP3 3233 TIP3 H1   HT            0.417         1.008       0
    9941 TIP3 3233 TIP3 H2   HT            0.417         1.008       0
    9942 TIP3 3234 TIP3 OH2  OT           -0.834       15.9994       0
    9943 TIP3 3234 TIP3 H1   HT            0.417         1.008       0
    9944 TIP3 3234 TIP3 H2   HT            0.417         1.008       0
    9945 TIP3 3235 TIP3 OH2  OT           -0.834       15.9994       0
    9946 TIP3 3235 TIP3 H1   HT            0.417         1.008       0
    9947 TIP3 3235 TIP3 H2   HT            0.417         1.008       0
    9948 TIP3 3236 TIP3 OH2  OT           -0.834       15.9994       0
    9949 TIP3 3236 TIP3 H1   HT            0.417         1.008       0
    9950 TIP3 3236 TIP3 H2   HT            0.417         1.008       0
    9951 TIP3 3237 TIP3 OH2  OT           -0.834       15.9994       0
    9952 TIP3 3237 TIP3 H1   HT            0.417         1.008       0
    9953 TIP3 3237 TIP3 H2   HT            0.417         1.008       0
    9954 TIP3 3238 TIP3 OH2  OT           -0.834       15.9994       0
    9955 TIP3 3238 TIP3 H1   HT            0.417         1.008       0
    9956 TIP3 3238 TIP3 H2   HT            0.417         1.008       0
    9957 TIP3 3239 TIP3 OH2  OT           -0.834       15.9994       0
    9958 TIP3 3239 TIP3 H1   HT            0.417         1.008       0
    9959 TIP3 3239 TIP3 H2   HT            0.417         1.008       0
    9960 TIP3 3240 TIP3 OH2  OT           -0.834       15.9994       0
    9961 TIP3 3240 TIP3 H1   HT            0.417         1.008       0
    9962 TIP3 3240 TIP3 H2   HT            0.417         1.008       0
    9963 TIP3 3241 TIP3 OH2  OT           -0.834       15.9994       0
    9964 TIP3 3241 TIP3 H1   HT            0.417         1.008       0
    9965 TIP3 3241 TIP3 H2   HT            0.417         1.008       0
    9966 TIP3 3242 TIP3 OH2  OT           -0.834       15.9994       0
    9967 TIP3 3242 TIP3 H1   HT            0.417         1.008       0
    9968 TIP3 3242 TIP3 H2   HT            0.417         1.008       0
    9969 TIP3 3243 TIP3 OH2  OT           -0.834       15.9994       0
    9970 TIP3 3243 TIP3 H1   HT            0.417         1.008       0
    9971 TIP3 3243 TIP3 H2   HT            0.417         1.008       0
    9972 TIP3 3244 TIP3 OH2  OT           -0.834       15.9994       0
    9973 TIP3 3244 TIP3 H1   HT            0.417         1.008       0
    9974 TIP3 3244 TIP3 H2   HT            0.417         1.008       0
    9975 TIP3 3245 TIP3 OH2  OT           -0.834       15.9994       0
    9976 TIP3 3245 TIP3 H1   HT            0.417         1.008       0
    9977 TIP3 3245 TIP3 H2   HT            0.417         1.008       0
    9978 TIP3 3246 TIP3 OH2  OT           -0.834       15.9994       0
    9979 TIP3 3246 TIP3 H1   HT            0.417         1.008       0
    9980 TIP3 3246 TIP3 H2   HT            0.417         1.008       0
    9981 TIP3 3247 TIP3 OH2  OT           -0.834       15.9994       0
    9982 TIP3 3247 TIP3 H1   HT            0.417         1.008       0
    9983 TIP3 3247 TIP3 H2   HT            0.417         1.008       0
    9984 TIP3 3248 TIP3 OH2  OT           -0.834       15.9994       0
    9985 TIP3 3248 TIP3 H1   HT            0.417         1.008       0
    9986 TIP3 3248 TIP3 H2   HT            0.417         1.008       0
    9987 TIP3 3249 TIP3 OH2  OT           -0.834       15.9994       0
    9988 TIP3 3249 TIP3 H1   HT            0.417         1.008       0
    9989 TIP3 3249 TIP3 H2   HT            0.417         1.008       0
    9990 TIP3 3250 TIP3 OH2  OT           -0.834       15.9994       0
    9991 TIP3 3250 TIP3 H1   HT            0.417         1.008       0
    9992 TIP3 3250 TIP3 H2   HT            0.417         1.008       0
    9993 TIP3 3251 TIP3 OH2  OT           -0.834       15.9994       0
    9994 TIP3 3251 TIP3 H1   HT            0.417         1.008       0
    9995 TIP3 3251 TIP3 H2   HT            0.417         1.008       0
    9996 TIP3 3252 TIP3 OH2  OT           -0.834       15.9994       0
    9997 TIP3 3252 TIP3 H1   HT            0.417         1.008       0
    9998 TIP3 3252 TIP3 H2   HT            0.417         1.008       0
    9999 TIP3 3253 TIP3 OH2  OT           -0.834       15.9994       0
   10000 TIP3 3253 TIP3 H1   HT            0.417         1.008       0
   10001 TIP3 3253 TIP3 H2   HT            0.417         1.008       0
   10002 TIP3 3254 TIP3 OH2  OT           -0.834       15.9994       0
   10003 TIP3 3254 TIP3 H1   HT            0.417         1.008       0
   10004 TIP3 3254 TIP3 H2   HT            0.417         1.008       0
   10005 TIP3 3255 TIP3 OH2  OT           -0.834       15.9994       0
   10006 TIP3 3255 TIP3 H1   HT            0.417         1.008       0
   10007 TIP3 3255 TIP3 H2   HT            0.417         1.008       0
   10008 TIP3 3256 TIP3 OH2  OT           -0.834       15.9994       0
   10009 TIP3 3256 TIP3 H1   HT            0.417         1.008       0
   10010 TIP3 3256 TIP3 H2   HT            0.417         1.008       0
   10011 TIP3 3257 TIP3 OH2  OT           -0.834       15.9994       0
   10012 TIP3 3257 TIP3 H1   HT            0.417         1.008       0
   10013 TIP3 3257 TIP3 H2   HT            0.417         1.008       0
   10014 TIP3 3258 TIP3 OH2  OT           -0.834       15.9994       0
   10015 TIP3 3258 TIP3 H1   HT            0.417         1.008       0
   10016 TIP3 3258 TIP3 H2   HT            0.417         1.008       0
   10017 TIP3 3259 TIP3 OH2  OT           -0.834       15.9994       0
   10018 TIP3 3259 TIP3 H1   HT            0.417         1.008       0
   10019 TIP3 3259 TIP3 H2   HT            0.417         1.008       0
   10020 TIP3 3260 TIP3 OH2  OT           -0.834       15.9994       0
   10021 TIP3 3260 TIP3 H1   HT            0.417         1.008       0
   10022 TIP3 3260 TIP3 H2   HT            0.417         1.008       0
   10023 TIP3 3261 TIP3 OH2  OT           -0.834       15.9994       0
   10024 TIP3 3261 TIP3 H1   HT            0.417         1.008       0
   10025 TIP3 3261 TIP3 H2   HT            0.417         1.008       0
   10026 TIP3 3262 TIP3 OH2  OT           -0.834       15.9994       0
   10027 TIP3 3262 TIP3 H1   HT            0.417         1.008       0
   10028 TIP3 3262 TIP3 H2   HT            0.417         1.008       0
   10029 TIP3 3263 TIP3 OH2  OT           -0.834       15.9994       0
   10030 TIP3 3263 TIP3 H1   HT            0.417         1.008       0
   10031 TIP3 3263 TIP3 H2   HT            0.417         1.008       0
   10032 TIP3 3264 TIP3 OH2  OT           -0.834       15.9994       0
   10033 TIP3 3264 TIP3 H1   HT            0.417         1.008       0
   10034 TIP3 3264 TIP3 H2   HT            0.417         1.008       0
   10035 TIP3 3265 TIP3 OH2  OT           -0.834       15.9994       0
   10036 TIP3 3265 TIP3 H1   HT            0.417         1.008       0
   10037 TIP3 3265 TIP3 H2   HT            0.417         1.008       0
   10038 TIP3 3266 TIP3 OH2  OT           -0.834       15.9994       0
   10039 TIP3 3266 TIP3 H1   HT            0.417         1.008       0
   10040 TIP3 3266 TIP3 H2   HT            0.417         1.008       0
   10041 TIP3 3267 TIP3 OH2  OT           -0.834       15.9994       0
   10042 TIP3 3267 TIP3 H1   HT            0.417         1.008       0
   10043 TIP3 3267 TIP3 H2   HT            0.417         1.008       0
   10044 TIP3 3268 TIP3 OH2  OT           -0.834       15.9994       0
   10045 TIP3 3268 TIP3 H1   HT            0.417         1.008       0
   10046 TIP3 3268 TIP3 H2   HT            0.417         1.008       0
   10047 TIP3 3269 TIP3 OH2  OT           -0.834       15.9994       0
   10048 TIP3 3269 TIP3 H1   HT            0.417         1.008       0
   10049 TIP3 3269 TIP3 H2   HT            0.417         1.008       0
   10050 TIP3 3270 TIP3 OH2  OT           -0.834       15.9994       0
   10051 TIP3 3270 TIP3 H1   HT            0.417         1.008       0
   10052 TIP3 3270 TIP3 H2   HT            0.417         1.008       0
   10053 TIP3 3271 TIP3 OH2  OT           -0.834       15.9994       0
   10054 TIP3 3271 TIP3 H1   HT            0.417         1.008       0
   10055 TIP3 3271 TIP3 H2   HT            0.417         1.008       0
   10056 TIP3 3272 TIP3 OH2  OT           -0.834       15.9994       0
   10057 TIP3 3272 TIP3 H1   HT            0.417         1.008       0
   10058 TIP3 3272 TIP3 H2   HT            0.417         1.008       0
   10059 TIP3 3273 TIP3 OH2  OT           -0.834       15.9994       0
   10060 TIP3 3273 TIP3 H1   HT            0.417         1.008       0
   10061 TIP3 3273 TIP3 H2   HT            0.417         1.008       0
   10062 TIP3 3274 TIP3 OH2  OT           -0.834       15.9994       0
   10063 TIP3 3274 TIP3 H1   HT            0.417         1.008       0
   10064 TIP3 3274 TIP3 H2   HT            0.417         1.008       0
   10065 TIP3 3275 TIP3 OH2  OT           -0.834       15.9994       0
   10066 TIP3 3275 TIP3 H1   HT            0.417         1.008       0
   10067 TIP3 3275 TIP3 H2   HT            0.417         1.008       0
   10068 TIP3 3276 TIP3 OH2  OT           -0.834       15.9994       0
   10069 TIP3 3276 TIP3 H1   HT            0.417         1.008       0
   10070 TIP3 3276 TIP3 H2   HT            0.417         1.008       0
   10071 TIP3 3277 TIP3 OH2  OT           -0.834       15.9994       0
   10072 TIP3 3277 TIP3 H1   HT            0.417         1.008       0
   10073 TIP3 3277 TIP3 H2   HT            0.417         1.008       0
   10074 TIP3 3278 TIP3 OH2  OT           -0.834       15.9994       0
   10075 TIP3 3278 TIP3 H1   HT            0.417         1.008       0
   10076 TIP3 3278 TIP3 H2   HT            0.417         1.008       0
   10077 TIP3 3279 TIP3 OH2  OT           -0.834       15.9994       0
   10078 TIP3 3279 TIP3 H1   HT            0.417         1.008       0
   10079 TIP3 3279 TIP3 H2   HT            0.417         1.008       0
   10080 TIP3 3280 TIP3 OH2  OT           -0.834       15.9994       0
   10081 TIP3 3280 TIP3 H1   HT            0.417         1.008       0
   10082 TIP3 3280 TIP3 H2   HT            0.417         1.008       0
   10083 TIP3 3281 TIP3 OH2  OT           -0.834       15.9994       0
   10084 TIP3 3281 TIP3 H1   HT            0.417         1.008       0
   10085 TIP3 3281 TIP3 H2   HT            0.417         1.008       0
   10086 TIP3 3282 TIP3 OH2  OT           -0.834       15.9994       0
   10087 TIP3 3282 TIP3 H1   HT            0.417         1.008       0
   10088 TIP3 3282 TIP3 H2   HT            0.417         1.008       0
   10089 TIP3 3283 TIP3 OH2  OT           -0.834       15.9994       0
   10090 TIP3 3283 TIP3 H1   HT            0.417         1.008       0
   10091 TIP3 3283 TIP3 H2   HT            0.417         1.008       0
   10092 TIP3 3284 TIP3 OH2  OT           -0.834       15.9994       0
   10093 TIP3 3284 TIP3 H1   HT            0.417         1.008       0
   10094 TIP3 3284 TIP3 H2   HT            0.417         1.008       0
   10095 TIP3 3285 TIP3 OH2  OT           -0.834       15.9994       0
   10096 TIP3 3285 TIP3 H1   HT            0.417         1.008       0
   10097 TIP3 3285 TIP3 H2   HT            0.417         1.008       0
   10098 TIP3 3286 TIP3 OH2  OT           -0.834       15.9994       0
   10099 TIP3 3286 TIP3 H1   HT            0.417         1.008       0
   10100 TIP3 3286 TIP3 H2   HT            0.417         1.008       0
   10101 TIP3 3287 TIP3 OH2  OT           -0.834       15.9994       0
   10102 TIP3 3287 TIP3 H1   HT            0.417         1.008       0
   10103 TIP3 3287 TIP3 H2   HT            0.417         1.008       0
   10104 TIP3 3288 TIP3 OH2  OT           -0.834       15.9994       0
   10105 TIP3 3288 TIP3 H1   HT            0.417         1.008       0
   10106 TIP3 3288 TIP3 H2   HT            0.417         1.008       0
   10107 TIP3 3289 TIP3 OH2  OT           -0.834       15.9994       0
   10108 TIP3 3289 TIP3 H1   HT            0.417         1.008       0
   10109 TIP3 3289 TIP3 H2   HT            0.417         1.008       0
   10110 TIP3 3290 TIP3 OH2  OT           -0.834       15.9994       0
   10111 TIP3 3290 TIP3 H1   HT            0.417         1.008       0
   10112 TIP3 3290 TIP3 H2   HT            0.417         1.008       0
   10113 TIP3 3291 TIP3 OH2  OT           -0.834       15.9994       0
   10114 TIP3 3291 TIP3 H1   HT            0.417         1.008       0
   10115 TIP3 3291 TIP3 H2   HT            0.417         1.008       0
   10116 TIP3 3292 TIP3 OH2  OT           -0.834       15.9994       0
   10117 TIP3 3292 TIP3 H1   HT            0.417         1.008       0
   10118 TIP3 3292 TIP3 H2   HT            0.417         1.008       0
   10119 TIP3 3293 TIP3 OH2  OT           -0.834       15.9994       0
   10120 TIP3 3293 TIP3 H1   HT            0.417         1.008       0
   10121 TIP3 3293 TIP3 H2   HT            0.417         1.008       0
   10122 TIP3 3294 TIP3 OH2  OT           -0.834       15.9994       0
   10123 TIP3 3294 TIP3 H1   HT            0.417         1.008       0
   10124 TIP3 3294 TIP3 H2   HT            0.417         1.008       0
   10125 TIP3 3295 TIP3 OH2  OT           -0.834       15.9994       0
   10126 TIP3 3295 TIP3 H1   HT            0.417         1.008       0
   10127 TIP3 3295 TIP3 H2   HT            0.417         1.008       0
   10128 TIP3 3296 TIP3 OH2  OT           -0.834       15.9994       0
   10129 TIP3 3296 TIP3 H1   HT            0.417         1.008       0
   10130 TIP3 3296 TIP3 H2   HT            0.417         1.008       0
   10131 TIP3 3297 TIP3 OH2  OT           -0.834       15.9994       0
   10132 TIP3 3297 TIP3 H1   HT            0.417         1.008       0
   10133 TIP3 3297 TIP3 H2   HT            0.417         1.008       0
   10134 TIP3 3298 TIP3 OH2  OT           -0.834       15.9994       0
   10135 TIP3 3298 TIP3 H1   HT            0.417         1.008       0
   10136 TIP3 3298 TIP3 H2   HT            0.417         1.008       0
   10137 TIP3 3299 TIP3 OH2  OT           -0.834       15.9994       0
   10138 TIP3 3299 TIP3 H1   HT            0.417         1.008       0
   10139 TIP3 3299 TIP3 H2   HT            0.417         1.008       0
   10140 TIP3 3300 TIP3 OH2  OT           -0.834       15.9994       0
   10141 TIP3 3300 TIP3 H1   HT            0.417         1.008       0
   10142 TIP3 3300 TIP3 H2   HT            0.417         1.008       0
   10143 TIP3 3301 TIP3 OH2  OT           -0.834       15.9994       0
   10144 TIP3 3301 TIP3 H1   HT            0.417         1.008       0
   10145 TIP3 3301 TIP3 H2   HT            0.417         1.008       0
   10146 TIP3 3302 TIP3 OH2  OT           -0.834       15.9994       0
   10147 TIP3 3302 TIP3 H1   HT            0.417         1.008       0
   10148 TIP3 3302 TIP3 H2   HT            0.417         1.008       0
   10149 TIP3 3303 TIP3 OH2  OT           -0.834       15.9994       0
   10150 TIP3 3303 TIP3 H1   HT            0.417         1.008       0
   10151 TIP3 3303 TIP3 H2   HT            0.417         1.008       0
   10152 TIP3 3304 TIP3 OH2  OT           -0.834       15.9994       0
   10153 TIP3 3304 TIP3 H1   HT            0.417         1.008       0
   10154 TIP3 3304 TIP3 H2   HT            0.417         1.008       0
   10155 TIP3 3305 TIP3 OH2  OT           -0.834       15.9994       0
   10156 TIP3 3305 TIP3 H1   HT            0.417         1.008       0
   10157 TIP3 3305 TIP3 H2   HT            0.417         1.008       0
   10158 TIP3 3306 TIP3 OH2  OT           -0.834       15.9994       0
   10159 TIP3 3306 TIP3 H1   HT            0.417         1.008       0
   10160 TIP3 3306 TIP3 H2   HT            0.417         1.008       0
   10161 TIP3 3307 TIP3 OH2  OT           -0.834       15.9994       0
   10162 TIP3 3307 TIP3 H1   HT            0.417         1.008       0
   10163 TIP3 3307 TIP3 H2   HT            0.417         1.008       0
   10164 TIP3 3308 TIP3 OH2  OT           -0.834       15.9994       0
   10165 TIP3 3308 TIP3 H1   HT            0.417         1.008       0
   10166 TIP3 3308 TIP3 H2   HT            0.417         1.008       0
   10167 TIP3 3309 TIP3 OH2  OT           -0.834       15.9994       0
   10168 TIP3 3309 TIP3 H1   HT            0.417         1.008       0
   10169 TIP3 3309 TIP3 H2   HT            0.417         1.008       0
   10170 TIP3 3310 TIP3 OH2  OT           -0.834       15.9994       0
   10171 TIP3 3310 TIP3 H1   HT            0.417         1.008       0
   10172 TIP3 3310 TIP3 H2   HT            0.417         1.008       0
   10173 TIP3 3311 TIP3 OH2  OT           -0.834       15.9994       0
   10174 TIP3 3311 TIP3 H1   HT            0.417         1.008       0
   10175 TIP3 3311 TIP3 H2   HT            0.417         1.008       0
   10176 TIP3 3312 TIP3 OH2  OT           -0.834       15.9994       0
   10177 TIP3 3312 TIP3 H1   HT            0.417         1.008       0
   10178 TIP3 3312 TIP3 H2   HT            0.417         1.008       0
   10179 TIP3 3313 TIP3 OH2  OT           -0.834       15.9994       0
   10180 TIP3 3313 TIP3 H1   HT            0.417         1.008       0
   10181 TIP3 3313 TIP3 H2   HT            0.417         1.008       0
   10182 TIP3 3314 TIP3 OH2  OT           -0.834       15.9994       0
   10183 TIP3 3314 TIP3 H1   HT            0.417         1.008       0
   10184 TIP3 3314 TIP3 H2   HT            0.417         1.008       0
   10185 TIP3 3315 TIP3 OH2  OT           -0.834       15.9994       0
   10186 TIP3 3315 TIP3 H1   HT            0.417         1.008       0
   10187 TIP3 3315 TIP3 H2   HT            0.417         1.008       0
   10188 TIP3 3316 TIP3 OH2  OT           -0.834       15.9994       0
   10189 TIP3 3316 TIP3 H1   HT            0.417         1.008       0
   10190 TIP3 3316 TIP3 H2   HT            0.417         1.008       0
   10191 TIP3 3317 TIP3 OH2  OT           -0.834       15.9994       0
   10192 TIP3 3317 TIP3 H1   HT            0.417         1.008       0
   10193 TIP3 3317 TIP3 H2   HT            0.417         1.008       0
   10194 TIP3 3318 TIP3 OH2  OT           -0.834       15.9994       0
   10195 TIP3 3318 TIP3 H1   HT            0.417         1.008       0
   10196 TIP3 3318 TIP3 H2   HT            0.417         1.008       0
   10197 TIP3 3319 TIP3 OH2  OT           -0.834       15.9994       0
   10198 TIP3 3319 TIP3 H1   HT            0.417         1.008       0
   10199 TIP3 3319 TIP3 H2   HT            0.417         1.008       0
   10200 TIP3 3320 TIP3 OH2  OT           -0.834       15.9994       0
   10201 TIP3 3320 TIP3 H1   HT            0.417         1.008       0
   10202 TIP3 3320 TIP3 H2   HT            0.417         1.008       0
   10203 TIP3 3321 TIP3 OH2  OT           -0.834       15.9994       0
   10204 TIP3 3321 TIP3 H1   HT            0.417         1.008       0
   10205 TIP3 3321 TIP3 H2   HT            0.417         1.008       0
   10206 TIP3 3322 TIP3 OH2  OT           -0.834       15.9994       0
   10207 TIP3 3322 TIP3 H1   HT            0.417         1.008       0
   10208 TIP3 3322 TIP3 H2   HT            0.417         1.008       0
   10209 TIP3 3323 TIP3 OH2  OT           -0.834       15.9994       0
   10210 TIP3 3323 TIP3 H1   HT            0.417         1.008       0
   10211 TIP3 3323 TIP3 H2   HT            0.417         1.008       0
   10212 TIP3 3324 TIP3 OH2  OT           -0.834       15.9994       0
   10213 TIP3 3324 TIP3 H1   HT            0.417         1.008       0
   10214 TIP3 3324 TIP3 H2   HT            0.417         1.008       0
   10215 TIP3 3325 TIP3 OH2  OT           -0.834       15.9994       0
   10216 TIP3 3325 TIP3 H1   HT            0.417         1.008       0
   10217 TIP3 3325 TIP3 H2   HT            0.417         1.008       0
   10218 TIP3 3326 TIP3 OH2  OT           -0.834       15.9994       0
   10219 TIP3 3326 TIP3 H1   HT            0.417         1.008       0
   10220 TIP3 3326 TIP3 H2   HT            0.417         1.008       0
   10221 TIP3 3327 TIP3 OH2  OT           -0.834       15.9994       0
   10222 TIP3 3327 TIP3 H1   HT            0.417         1.008       0
   10223 TIP3 3327 TIP3 H2   HT            0.417         1.008       0
   10224 TIP3 3328 TIP3 OH2  OT           -0.834       15.9994       0
   10225 TIP3 3328 TIP3 H1   HT            0.417         1.008       0
   10226 TIP3 3328 TIP3 H2   HT            0.417         1.008       0
   10227 TIP3 3329 TIP3 OH2  OT           -0.834       15.9994       0
   10228 TIP3 3329 TIP3 H1   HT            0.417         1.008       0
   10229 TIP3 3329 TIP3 H2   HT            0.417         1.008       0
   10230 TIP3 3330 TIP3 OH2  OT           -0.834       15.9994       0
   10231 TIP3 3330 TIP3 H1   HT            0.417         1.008       0
   10232 TIP3 3330 TIP3 H2   HT            0.417         1.008       0
   10233 TIP3 3331 TIP3 OH2  OT           -0.834       15.9994       0
   10234 TIP3 3331 TIP3 H1   HT            0.417         1.008       0
   10235 TIP3 3331 TIP3 H2   HT            0.417         1.008       0
   10236 TIP3 3332 TIP3 OH2  OT           -0.834       15.9994       0
   10237 TIP3 3332 TIP3 H1   HT            0.417         1.008       0
   10238 TIP3 3332 TIP3 H2   HT            0.417         1.008       0
   10239 TIP3 3333 TIP3 OH2  OT           -0.834       15.9994       0
   10240 TIP3 3333 TIP3 H1   HT            0.417         1.008       0
   10241 TIP3 3333 TIP3 H2   HT            0.417         1.008       0
   10242 TIP3 3334 TIP3 OH2  OT           -0.834       15.9994       0
   10243 TIP3 3334 TIP3 H1   HT            0.417         1.008       0
   10244 TIP3 3334 TIP3 H2   HT            0.417         1.008       0
   10245 TIP3 3335 TIP3 OH2  OT           -0.834       15.9994       0
   10246 TIP3 3335 TIP3 H1   HT            0.417         1.008       0
   10247 TIP3 3335 TIP3 H2   HT            0.417         1.008       0
   10248 TIP3 3336 TIP3 OH2  OT           -0.834       15.9994       0
   10249 TIP3 3336 TIP3 H1   HT            0.417         1.008       0
   10250 TIP3 3336 TIP3 H2   HT            0.417         1.008       0
   10251 TIP3 3337 TIP3 OH2  OT           -0.834       15.9994       0
   10252 TIP3 3337 TIP3 H1   HT            0.417         1.008       0
   10253 TIP3 3337 TIP3 H2   HT            0.417         1.008       0
   10254 TIP3 3338 TIP3 OH2  OT           -0.834       15.9994       0
   10255 TIP3 3338 TIP3 H1   HT            0.417         1.008       0
   10256 TIP3 3338 TIP3 H2   HT            0.417         1.008       0
   10257 TIP3 3339 TIP3 OH2  OT           -0.834       15.9994       0
   10258 TIP3 3339 TIP3 H1   HT            0.417         1.008       0
   10259 TIP3 3339 TIP3 H2   HT            0.417         1.008       0
   10260 TIP3 3340 TIP3 OH2  OT           -0.834       15.9994       0
   10261 TIP3 3340 TIP3 H1   HT            0.417         1.008       0
   10262 TIP3 3340 TIP3 H2   HT            0.417         1.008       0
   10263 TIP3 3341 TIP3 OH2  OT           -0.834       15.9994       0
   10264 TIP3 3341 TIP3 H1   HT            0.417         1.008       0
   10265 TIP3 3341 TIP3 H2   HT            0.417         1.008       0
   10266 TIP3 3342 TIP3 OH2  OT           -0.834       15.9994       0
   10267 TIP3 3342 TIP3 H1   HT            0.417         1.008       0
   10268 TIP3 3342 TIP3 H2   HT            0.417         1.008       0
   10269 TIP3 3343 TIP3 OH2  OT           -0.834       15.9994       0
   10270 TIP3 3343 TIP3 H1   HT            0.417         1.008       0
   10271 TIP3 3343 TIP3 H2   HT            0.417         1.008       0
   10272 TIP3 3344 TIP3 OH2  OT           -0.834       15.9994       0
   10273 TIP3 3344 TIP3 H1   HT            0.417         1.008       0
   10274 TIP3 3344 TIP3 H2   HT            0.417         1.008       0
   10275 TIP3 3345 TIP3 OH2  OT           -0.834       15.9994       0
   10276 TIP3 3345 TIP3 H1   HT            0.417         1.008       0
   10277 TIP3 3345 TIP3 H2   HT            0.417         1.008       0
   10278 TIP3 3346 TIP3 OH2  OT           -0.834       15.9994       0
   10279 TIP3 3346 TIP3 H1   HT            0.417         1.008       0
   10280 TIP3 3346 TIP3 H2   HT            0.417         1.008       0
   10281 TIP3 3347 TIP3 OH2  OT           -0.834       15.9994       0
   10282 TIP3 3347 TIP3 H1   HT            0.417         1.008       0
   10283 TIP3 3347 TIP3 H2   HT            0.417         1.008       0
   10284 TIP3 3348 TIP3 OH2  OT           -0.834       15.9994       0
   10285 TIP3 3348 TIP3 H1   HT            0.417         1.008       0
   10286 TIP3 3348 TIP3 H2   HT            0.417         1.008       0
   10287 TIP3 3349 TIP3 OH2  OT           -0.834       15.9994       0
   10288 TIP3 3349 TIP3 H1   HT            0.417         1.008       0
   10289 TIP3 3349 TIP3 H2   HT            0.417         1.008       0
   10290 TIP3 3350 TIP3 OH2  OT           -0.834       15.9994       0
   10291 TIP3 3350 TIP3 H1   HT            0.417         1.008       0
   10292 TIP3 3350 TIP3 H2   HT            0.417         1.008       0
   10293 TIP3 3351 TIP3 OH2  OT           -0.834       15.9994       0
   10294 TIP3 3351 TIP3 H1   HT            0.417         1.008       0
   10295 TIP3 3351 TIP3 H2   HT            0.417         1.008       0
   10296 TIP3 3352 TIP3 OH2  OT           -0.834       15.9994       0
   10297 TIP3 3352 TIP3 H1   HT            0.417         1.008       0
   10298 TIP3 3352 TIP3 H2   HT            0.417         1.008       0
   10299 TIP3 3353 TIP3 OH2  OT           -0.834       15.9994       0
   10300 TIP3 3353 TIP3 H1   HT            0.417         1.008       0
   10301 TIP3 3353 TIP3 H2   HT            0.417         1.008       0
   10302 TIP3 3354 TIP3 OH2  OT           -0.834       15.9994       0
   10303 TIP3 3354 TIP3 H1   HT            0.417         1.008       0
   10304 TIP3 3354 TIP3 H2   HT            0.417         1.008       0
   10305 TIP3 3355 TIP3 OH2  OT           -0.834       15.9994       0
   10306 TIP3 3355 TIP3 H1   HT            0.417         1.008       0
   10307 TIP3 3355 TIP3 H2   HT            0.417         1.008       0
   10308 TIP3 3356 TIP3 OH2  OT           -0.834       15.9994       0
   10309 TIP3 3356 TIP3 H1   HT            0.417         1.008       0
   10310 TIP3 3356 TIP3 H2   HT            0.417         1.008       0
   10311 TIP3 3357 TIP3 OH2  OT           -0.834       15.9994       0
   10312 TIP3 3357 TIP3 H1   HT            0.417         1.008       0
   10313 TIP3 3357 TIP3 H2   HT            0.417         1.008       0
   10314 TIP3 3358 TIP3 OH2  OT           -0.834       15.9994       0
   10315 TIP3 3358 TIP3 H1   HT            0.417         1.008       0
   10316 TIP3 3358 TIP3 H2   HT            0.417         1.008       0
   10317 TIP3 3359 TIP3 OH2  OT           -0.834       15.9994       0
   10318 TIP3 3359 TIP3 H1   HT            0.417         1.008       0
   10319 TIP3 3359 TIP3 H2   HT            0.417         1.008       0
   10320 TIP3 3360 TIP3 OH2  OT           -0.834       15.9994       0
   10321 TIP3 3360 TIP3 H1   HT            0.417         1.008       0
   10322 TIP3 3360 TIP3 H2   HT            0.417         1.008       0
   10323 TIP3 3361 TIP3 OH2  OT           -0.834       15.9994       0
   10324 TIP3 3361 TIP3 H1   HT            0.417         1.008       0
   10325 TIP3 3361 TIP3 H2   HT            0.417         1.008       0
   10326 TIP3 3362 TIP3 OH2  OT           -0.834       15.9994       0
   10327 TIP3 3362 TIP3 H1   HT            0.417         1.008       0
   10328 TIP3 3362 TIP3 H2   HT            0.417         1.008       0
   10329 TIP3 3363 TIP3 OH2  OT           -0.834       15.9994       0
   10330 TIP3 3363 TIP3 H1   HT            0.417         1.008       0
   10331 TIP3 3363 TIP3 H2   HT            0.417         1.008       0
   10332 TIP3 3364 TIP3 OH2  OT           -0.834       15.9994       0
   10333 TIP3 3364 TIP3 H1   HT            0.417         1.008       0
   10334 TIP3 3364 TIP3 H2   HT            0.417         1.008       0
   10335 TIP3 3365 TIP3 OH2  OT           -0.834       15.9994       0
   10336 TIP3 3365 TIP3 H1   HT            0.417         1.008       0
   10337 TIP3 3365 TIP3 H2   HT            0.417         1.008       0
   10338 TIP3 3366 TIP3 OH2  OT           -0.834       15.9994       0
   10339 TIP3 3366 TIP3 H1   HT            0.417         1.008       0
   10340 TIP3 3366 TIP3 H2   HT            0.417         1.008       0
   10341 TIP3 3367 TIP3 OH2  OT           -0.834       15.9994       0
   10342 TIP3 3367 TIP3 H1   HT            0.417         1.008       0
   10343 TIP3 3367 TIP3 H2   HT            0.417         1.008       0
   10344 TIP3 3368 TIP3 OH2  OT           -0.834       15.9994       0
   10345 TIP3 3368 TIP3 H1   HT            0.417         1.008       0
   10346 TIP3 3368 TIP3 H2   HT            0.417         1.008       0
   10347 TIP3 3369 TIP3 OH2  OT           -0.834       15.9994       0
   10348 TIP3 3369 TIP3 H1   HT            0.417         1.008       0
   10349 TIP3 3369 TIP3 H2   HT            0.417         1.008       0
   10350 TIP3 3370 TIP3 OH2  OT           -0.834       15.9994       0
   10351 TIP3 3370 TIP3 H1   HT            0.417         1.008       0
   10352 TIP3 3370 TIP3 H2   HT            0.417         1.008       0
   10353 TIP3 3371 TIP3 OH2  OT           -0.834       15.9994       0
   10354 TIP3 3371 TIP3 H1   HT            0.417         1.008       0
   10355 TIP3 3371 TIP3 H2   HT            0.417         1.008       0
   10356 TIP3 3372 TIP3 OH2  OT           -0.834       15.9994       0
   10357 TIP3 3372 TIP3 H1   HT            0.417         1.008       0
   10358 TIP3 3372 TIP3 H2   HT            0.417         1.008       0
   10359 TIP3 3373 TIP3 OH2  OT           -0.834       15.9994       0
   10360 TIP3 3373 TIP3 H1   HT            0.417         1.008       0
   10361 TIP3 3373 TIP3 H2   HT            0.417         1.008       0
   10362 TIP3 3374 TIP3 OH2  OT           -0.834       15.9994       0
   10363 TIP3 3374 TIP3 H1   HT            0.417         1.008       0
   10364 TIP3 3374 TIP3 H2   HT            0.417         1.008       0
   10365 TIP3 3375 TIP3 OH2  OT           -0.834       15.9994       0
   10366 TIP3 3375 TIP3 H1   HT            0.417         1.008       0
   10367 TIP3 3375 TIP3 H2   HT            0.417         1.008       0
   10368 TIP3 3376 TIP3 OH2  OT           -0.834       15.9994       0
   10369 TIP3 3376 TIP3 H1   HT            0.417         1.008       0
   10370 TIP3 3376 TIP3 H2   HT            0.417         1.008       0
   10371 TIP3 3377 TIP3 OH2  OT           -0.834       15.9994       0
   10372 TIP3 3377 TIP3 H1   HT            0.417         1.008       0
   10373 TIP3 3377 TIP3 H2   HT            0.417         1.008       0
   10374 TIP3 3378 TIP3 OH2  OT           -0.834       15.9994       0
   10375 TIP3 3378 TIP3 H1   HT            0.417         1.008       0
   10376 TIP3 3378 TIP3 H2   HT            0.417         1.008       0
   10377 TIP3 3379 TIP3 OH2  OT           -0.834       15.9994       0
   10378 TIP3 3379 TIP3 H1   HT            0.417         1.008       0
   10379 TIP3 3379 TIP3 H2   HT            0.417         1.008       0
   10380 TIP3 3380 TIP3 OH2  OT           -0.834       15.9994       0
   10381 TIP3 3380 TIP3 H1   HT            0.417         1.008       0
   10382 TIP3 3380 TIP3 H2   HT            0.417         1.008       0
   10383 TIP3 3381 TIP3 OH2  OT           -0.834       15.9994       0
   10384 TIP3 3381 TIP3 H1   HT            0.417         1.008       0
   10385 TIP3 3381 TIP3 H2   HT            0.417         1.008       0
   10386 TIP3 3382 TIP3 OH2  OT           -0.834       15.9994       0
   10387 TIP3 3382 TIP3 H1   HT            0.417         1.008       0
   10388 TIP3 3382 TIP3 H2   HT            0.417         1.008       0
   10389 TIP3 3383 TIP3 OH2  OT           -0.834       15.9994       0
   10390 TIP3 3383 TIP3 H1   HT            0.417         1.008       0
   10391 TIP3 3383 TIP3 H2   HT            0.417         1.008       0
   10392 TIP3 3384 TIP3 OH2  OT           -0.834       15.9994       0
   10393 TIP3 3384 TIP3 H1   HT            0.417         1.008       0
   10394 TIP3 3384 TIP3 H2   HT            0.417         1.008       0
   10395 TIP3 3385 TIP3 OH2  OT           -0.834       15.9994       0
   10396 TIP3 3385 TIP3 H1   HT            0.417         1.008       0
   10397 TIP3 3385 TIP3 H2   HT            0.417         1.008       0
   10398 TIP3 3386 TIP3 OH2  OT           -0.834       15.9994       0
   10399 TIP3 3386 TIP3 H1   HT            0.417         1.008       0
   10400 TIP3 3386 TIP3 H2   HT            0.417         1.008       0
   10401 TIP3 3387 TIP3 OH2  OT           -0.834       15.9994       0
   10402 TIP3 3387 TIP3 H1   HT            0.417         1.008       0
   10403 TIP3 3387 TIP3 H2   HT            0.417         1.008       0
   10404 TIP3 3388 TIP3 OH2  OT           -0.834       15.9994       0
   10405 TIP3 3388 TIP3 H1   HT            0.417         1.008       0
   10406 TIP3 3388 TIP3 H2   HT            0.417         1.008       0
   10407 TIP3 3389 TIP3 OH2  OT           -0.834       15.9994       0
   10408 TIP3 3389 TIP3 H1   HT            0.417         1.008       0
   10409 TIP3 3389 TIP3 H2   HT            0.417         1.008       0
   10410 TIP3 3390 TIP3 OH2  OT           -0.834       15.9994       0
   10411 TIP3 3390 TIP3 H1   HT            0.417         1.008       0
   10412 TIP3 3390 TIP3 H2   HT            0.417         1.008       0
   10413 TIP3 3391 TIP3 OH2  OT           -0.834       15.9994       0
   10414 TIP3 3391 TIP3 H1   HT            0.417         1.008       0
   10415 TIP3 3391 TIP3 H2   HT            0.417         1.008       0
   10416 TIP3 3392 TIP3 OH2  OT           -0.834       15.9994       0
   10417 TIP3 3392 TIP3 H1   HT            0.417         1.008       0
   10418 TIP3 3392 TIP3 H2   HT            0.417         1.008       0
   10419 TIP3 3393 TIP3 OH2  OT           -0.834       15.9994       0
   10420 TIP3 3393 TIP3 H1   HT            0.417         1.008       0
   10421 TIP3 3393 TIP3 H2   HT            0.417         1.008       0
   10422 TIP3 3394 TIP3 OH2  OT           -0.834       15.9994       0
   10423 TIP3 3394 TIP3 H1   HT            0.417         1.008       0
   10424 TIP3 3394 TIP3 H2   HT            0.417         1.008       0
   10425 TIP3 3395 TIP3 OH2  OT           -0.834       15.9994       0
   10426 TIP3 3395 TIP3 H1   HT            0.417         1.008       0
   10427 TIP3 3395 TIP3 H2   HT            0.417         1.008       0
   10428 TIP3 3396 TIP3 OH2  OT           -0.834       15.9994       0
   10429 TIP3 3396 TIP3 H1   HT            0.417         1.008       0
   10430 TIP3 3396 TIP3 H2   HT            0.417         1.008       0
   10431 TIP3 3397 TIP3 OH2  OT           -0.834       15.9994       0
   10432 TIP3 3397 TIP3 H1   HT            0.417         1.008       0
   10433 TIP3 3397 TIP3 H2   HT            0.417         1.008       0
   10434 TIP3 3398 TIP3 OH2  OT           -0.834       15.9994       0
   10435 TIP3 3398 TIP3 H1   HT            0.417         1.008       0
   10436 TIP3 3398 TIP3 H2   HT            0.417         1.008       0
   10437 TIP3 3399 TIP3 OH2  OT           -0.834       15.9994       0
   10438 TIP3 3399 TIP3 H1   HT            0.417         1.008       0
   10439 TIP3 3399 TIP3 H2   HT            0.417         1.008       0
   10440 TIP3 3400 TIP3 OH2  OT           -0.834       15.9994       0
   10441 TIP3 3400 TIP3 H1   HT            0.417         1.008       0
   10442 TIP3 3400 TIP3 H2   HT            0.417         1.008       0
   10443 TIP3 3401 TIP3 OH2  OT           -0.834       15.9994       0
   10444 TIP3 3401 TIP3 H1   HT            0.417         1.008       0
   10445 TIP3 3401 TIP3 H2   HT            0.417         1.008       0
   10446 TIP3 3402 TIP3 OH2  OT           -0.834       15.9994       0
   10447 TIP3 3402 TIP3 H1   HT            0.417         1.008       0
   10448 TIP3 3402 TIP3 H2   HT            0.417         1.008       0
   10449 TIP3 3403 TIP3 OH2  OT           -0.834       15.9994       0
   10450 TIP3 3403 TIP3 H1   HT            0.417         1.008       0
   10451 TIP3 3403 TIP3 H2   HT            0.417         1.008       0
   10452 TIP3 3404 TIP3 OH2  OT           -0.834       15.9994       0
   10453 TIP3 3404 TIP3 H1   HT            0.417         1.008       0
   10454 TIP3 3404 TIP3 H2   HT            0.417         1.008       0
   10455 TIP3 3405 TIP3 OH2  OT           -0.834       15.9994       0
   10456 TIP3 3405 TIP3 H1   HT            0.417         1.008       0
   10457 TIP3 3405 TIP3 H2   HT            0.417         1.008       0
   10458 TIP3 3406 TIP3 OH2  OT           -0.834       15.9994       0
   10459 TIP3 3406 TIP3 H1   HT            0.417         1.008       0
   10460 TIP3 3406 TIP3 H2   HT            0.417         1.008       0
   10461 TIP3 3407 TIP3 OH2  OT           -0.834       15.9994       0
   10462 TIP3 3407 TIP3 H1   HT            0.417         1.008       0
   10463 TIP3 3407 TIP3 H2   HT            0.417         1.008       0
   10464 TIP3 3408 TIP3 OH2  OT           -0.834       15.9994       0
   10465 TIP3 3408 TIP3 H1   HT            0.417         1.008       0
   10466 TIP3 3408 TIP3 H2   HT            0.417         1.008       0
   10467 TIP3 3409 TIP3 OH2  OT           -0.834       15.9994       0
   10468 TIP3 3409 TIP3 H1   HT            0.417         1.008       0
   10469 TIP3 3409 TIP3 H2   HT            0.417         1.008       0
   10470 TIP3 3410 TIP3 OH2  OT           -0.834       15.9994       0
   10471 TIP3 3410 TIP3 H1   HT            0.417         1.008       0
   10472 TIP3 3410 TIP3 H2   HT            0.417         1.008       0
   10473 TIP3 3411 TIP3 OH2  OT           -0.834       15.9994       0
   10474 TIP3 3411 TIP3 H1   HT            0.417         1.008       0
   10475 TIP3 3411 TIP3 H2   HT            0.417         1.008       0
   10476 TIP3 3412 TIP3 OH2  OT           -0.834       15.9994       0
   10477 TIP3 3412 TIP3 H1   HT            0.417         1.008       0
   10478 TIP3 3412 TIP3 H2   HT            0.417         1.008       0
   10479 TIP3 3413 TIP3 OH2  OT           -0.834       15.9994       0
   10480 TIP3 3413 TIP3 H1   HT            0.417         1.008       0
   10481 TIP3 3413 TIP3 H2   HT            0.417         1.008       0
   10482 TIP3 3414 TIP3 OH2  OT           -0.834       15.9994       0
   10483 TIP3 3414 TIP3 H1   HT            0.417         1.008       0
   10484 TIP3 3414 TIP3 H2   HT            0.417         1.008       0
   10485 TIP3 3415 TIP3 OH2  OT           -0.834       15.9994       0
   10486 TIP3 3415 TIP3 H1   HT            0.417         1.008       0
   10487 TIP3 3415 TIP3 H2   HT            0.417         1.008       0
   10488 TIP3 3416 TIP3 OH2  OT           -0.834       15.9994       0
   10489 TIP3 3416 TIP3 H1   HT            0.417         1.008       0
   10490 TIP3 3416 TIP3 H2   HT            0.417         1.008       0
   10491 TIP3 3417 TIP3 OH2  OT           -0.834       15.9994       0
   10492 TIP3 3417 TIP3 H1   HT            0.417         1.008       0
   10493 TIP3 3417 TIP3 H2   HT            0.417         1.008       0
   10494 TIP3 3418 TIP3 OH2  OT           -0.834       15.9994       0
   10495 TIP3 3418 TIP3 H1   HT            0.417         1.008       0
   10496 TIP3 3418 TIP3 H2   HT            0.417         1.008       0
   10497 TIP3 3419 TIP3 OH2  OT           -0.834       15.9994       0
   10498 TIP3 3419 TIP3 H1   HT            0.417         1.008       0
   10499 TIP3 3419 TIP3 H2   HT            0.417         1.008       0
   10500 TIP3 3420 TIP3 OH2  OT           -0.834       15.9994       0
   10501 TIP3 3420 TIP3 H1   HT            0.417         1.008       0
   10502 TIP3 3420 TIP3 H2   HT            0.417         1.008       0
   10503 TIP3 3421 TIP3 OH2  OT           -0.834       15.9994       0
   10504 TIP3 3421 TIP3 H1   HT            0.417         1.008       0
   10505 TIP3 3421 TIP3 H2   HT            0.417         1.008       0
   10506 TIP3 3422 TIP3 OH2  OT           -0.834       15.9994       0
   10507 TIP3 3422 TIP3 H1   HT            0.417         1.008       0
   10508 TIP3 3422 TIP3 H2   HT            0.417         1.008       0
   10509 TIP3 3423 TIP3 OH2  OT           -0.834       15.9994       0
   10510 TIP3 3423 TIP3 H1   HT            0.417         1.008       0
   10511 TIP3 3423 TIP3 H2   HT            0.417         1.008       0
   10512 TIP3 3424 TIP3 OH2  OT           -0.834       15.9994       0
   10513 TIP3 3424 TIP3 H1   HT            0.417         1.008       0
   10514 TIP3 3424 TIP3 H2   HT            0.417         1.008       0
   10515 TIP3 3425 TIP3 OH2  OT           -0.834       15.9994       0
   10516 TIP3 3425 TIP3 H1   HT            0.417         1.008       0
   10517 TIP3 3425 TIP3 H2   HT            0.417         1.008       0
   10518 TIP3 3426 TIP3 OH2  OT           -0.834       15.9994       0
   10519 TIP3 3426 TIP3 H1   HT            0.417         1.008       0
   10520 TIP3 3426 TIP3 H2   HT            0.417         1.008       0
   10521 TIP3 3427 TIP3 OH2  OT           -0.834       15.9994       0
   10522 TIP3 3427 TIP3 H1   HT            0.417         1.008       0
   10523 TIP3 3427 TIP3 H2   HT            0.417         1.008       0
   10524 TIP3 3428 TIP3 OH2  OT           -0.834       15.9994       0
   10525 TIP3 3428 TIP3 H1   HT            0.417         1.008       0
   10526 TIP3 3428 TIP3 H2   HT            0.417         1.008       0
   10527 TIP3 3429 TIP3 OH2  OT           -0.834       15.9994       0
   10528 TIP3 3429 TIP3 H1   HT            0.417         1.008       0
   10529 TIP3 3429 TIP3 H2   HT            0.417         1.008       0
   10530 TIP3 3430 TIP3 OH2  OT           -0.834       15.9994       0
   10531 TIP3 3430 TIP3 H1   HT            0.417         1.008       0
   10532 TIP3 3430 TIP3 H2   HT            0.417         1.008       0
   10533 TIP3 3431 TIP3 OH2  OT           -0.834       15.9994       0
   10534 TIP3 3431 TIP3 H1   HT            0.417         1.008       0
   10535 TIP3 3431 TIP3 H2   HT            0.417         1.008       0
   10536 TIP3 3432 TIP3 OH2  OT           -0.834       15.9994       0
   10537 TIP3 3432 TIP3 H1   HT            0.417         1.008       0
   10538 TIP3 3432 TIP3 H2   HT            0.417         1.008       0
   10539 TIP3 3433 TIP3 OH2  OT           -0.834       15.9994       0
   10540 TIP3 3433 TIP3 H1   HT            0.417         1.008       0
   10541 TIP3 3433 TIP3 H2   HT            0.417         1.008       0
   10542 TIP3 3434 TIP3 OH2  OT           -0.834       15.9994       0
   10543 TIP3 3434 TIP3 H1   HT            0.417         1.008       0
   10544 TIP3 3434 TIP3 H2   HT            0.417         1.008       0
   10545 TIP3 3435 TIP3 OH2  OT           -0.834       15.9994       0
   10546 TIP3 3435 TIP3 H1   HT            0.417         1.008       0
   10547 TIP3 3435 TIP3 H2   HT            0.417         1.008       0
   10548 TIP3 3436 TIP3 OH2  OT           -0.834       15.9994       0
   10549 TIP3 3436 TIP3 H1   HT            0.417         1.008       0
   10550 TIP3 3436 TIP3 H2   HT            0.417         1.008       0
   10551 TIP3 3437 TIP3 OH2  OT           -0.834       15.9994       0
   10552 TIP3 3437 TIP3 H1   HT            0.417         1.008       0
   10553 TIP3 3437 TIP3 H2   HT            0.417         1.008       0
   10554 TIP3 3438 TIP3 OH2  OT           -0.834       15.9994       0
   10555 TIP3 3438 TIP3 H1   HT            0.417         1.008       0
   10556 TIP3 3438 TIP3 H2   HT            0.417         1.008       0
   10557 TIP3 3439 TIP3 OH2  OT           -0.834       15.9994       0
   10558 TIP3 3439 TIP3 H1   HT            0.417         1.008       0
   10559 TIP3 3439 TIP3 H2   HT            0.417         1.008       0
   10560 TIP3 3440 TIP3 OH2  OT           -0.834       15.9994       0
   10561 TIP3 3440 TIP3 H1   HT            0.417         1.008       0
   10562 TIP3 3440 TIP3 H2   HT            0.417         1.008       0
   10563 TIP3 3441 TIP3 OH2  OT           -0.834       15.9994       0
   10564 TIP3 3441 TIP3 H1   HT            0.417         1.008       0
   10565 TIP3 3441 TIP3 H2   HT            0.417         1.008       0
   10566 TIP3 3442 TIP3 OH2  OT           -0.834       15.9994       0
   10567 TIP3 3442 TIP3 H1   HT            0.417         1.008       0
   10568 TIP3 3442 TIP3 H2   HT            0.417         1.008       0
   10569 TIP3 3443 TIP3 OH2  OT           -0.834       15.9994       0
   10570 TIP3 3443 TIP3 H1   HT            0.417         1.008       0
   10571 TIP3 3443 TIP3 H2   HT            0.417         1.008       0
   10572 TIP3 3444 TIP3 OH2  OT           -0.834       15.9994       0
   10573 TIP3 3444 TIP3 H1   HT            0.417         1.008       0
   10574 TIP3 3444 TIP3 H2   HT            0.417         1.008       0
   10575 TIP3 3445 TIP3 OH2  OT           -0.834       15.9994       0
   10576 TIP3 3445 TIP3 H1   HT            0.417         1.008       0
   10577 TIP3 3445 TIP3 H2   HT            0.417         1.008       0
   10578 TIP3 3446 TIP3 OH2  OT           -0.834       15.9994       0
   10579 TIP3 3446 TIP3 H1   HT            0.417         1.008       0
   10580 TIP3 3446 TIP3 H2   HT            0.417         1.008       0
   10581 TIP3 3447 TIP3 OH2  OT           -0.834       15.9994       0
   10582 TIP3 3447 TIP3 H1   HT            0.417         1.008       0
   10583 TIP3 3447 TIP3 H2   HT            0.417         1.008       0
   10584 TIP3 3448 TIP3 OH2  OT           -0.834       15.9994       0
   10585 TIP3 3448 TIP3 H1   HT            0.417         1.008       0
   10586 TIP3 3448 TIP3 H2   HT            0.417         1.008       0
   10587 TIP3 3449 TIP3 OH2  OT           -0.834       15.9994       0
   10588 TIP3 3449 TIP3 H1   HT            0.417         1.008       0
   10589 TIP3 3449 TIP3 H2   HT            0.417         1.008       0
   10590 TIP3 3450 TIP3 OH2  OT           -0.834       15.9994       0
   10591 TIP3 3450 TIP3 H1   HT            0.417         1.008       0
   10592 TIP3 3450 TIP3 H2   HT            0.417         1.008       0
   10593 TIP3 3451 TIP3 OH2  OT           -0.834       15.9994       0
   10594 TIP3 3451 TIP3 H1   HT            0.417         1.008       0
   10595 TIP3 3451 TIP3 H2   HT            0.417         1.008       0
   10596 TIP3 3452 TIP3 OH2  OT           -0.834       15.9994       0
   10597 TIP3 3452 TIP3 H1   HT            0.417         1.008       0
   10598 TIP3 3452 TIP3 H2   HT            0.417         1.008       0
   10599 TIP3 3453 TIP3 OH2  OT           -0.834       15.9994       0
   10600 TIP3 3453 TIP3 H1   HT            0.417         1.008       0
   10601 TIP3 3453 TIP3 H2   HT            0.417         1.008       0
   10602 TIP3 3454 TIP3 OH2  OT           -0.834       15.9994       0
   10603 TIP3 3454 TIP3 H1   HT            0.417         1.008       0
   10604 TIP3 3454 TIP3 H2   HT            0.417         1.008       0
   10605 TIP3 3455 TIP3 OH2  OT           -0.834       15.9994       0
   10606 TIP3 3455 TIP3 H1   HT            0.417         1.008       0
   10607 TIP3 3455 TIP3 H2   HT            0.417         1.008       0
   10608 TIP3 3456 TIP3 OH2  OT           -0.834       15.9994       0
   10609 TIP3 3456 TIP3 H1   HT            0.417         1.008       0
   10610 TIP3 3456 TIP3 H2   HT            0.417         1.008       0
   10611 TIP3 3457 TIP3 OH2  OT           -0.834       15.9994       0
   10612 TIP3 3457 TIP3 H1   HT            0.417         1.008       0
   10613 TIP3 3457 TIP3 H2   HT            0.417         1.008       0
   10614 TIP3 3458 TIP3 OH2  OT           -0.834       15.9994       0
   10615 TIP3 3458 TIP3 H1   HT            0.417         1.008       0
   10616 TIP3 3458 TIP3 H2   HT            0.417         1.008       0
   10617 TIP3 3459 TIP3 OH2  OT           -0.834       15.9994       0
   10618 TIP3 3459 TIP3 H1   HT            0.417         1.008       0
   10619 TIP3 3459 TIP3 H2   HT            0.417         1.008       0
   10620 TIP3 3460 TIP3 OH2  OT           -0.834       15.9994       0
   10621 TIP3 3460 TIP3 H1   HT            0.417         1.008       0
   10622 TIP3 3460 TIP3 H2   HT            0.417         1.008       0
   10623 TIP3 3461 TIP3 OH2  OT           -0.834       15.9994       0
   10624 TIP3 3461 TIP3 H1   HT            0.417         1.008       0
   10625 TIP3 3461 TIP3 H2   HT            0.417         1.008       0
   10626 TIP3 3462 TIP3 OH2  OT           -0.834       15.9994       0
   10627 TIP3 3462 TIP3 H1   HT            0.417         1.008       0
   10628 TIP3 3462 TIP3 H2   HT            0.417         1.008       0
   10629 TIP3 3463 TIP3 OH2  OT           -0.834       15.9994       0
   10630 TIP3 3463 TIP3 H1   HT            0.417         1.008       0
   10631 TIP3 3463 TIP3 H2   HT            0.417         1.008       0
   10632 TIP3 3464 TIP3 OH2  OT           -0.834       15.9994       0
   10633 TIP3 3464 TIP3 H1   HT            0.417         1.008       0
   10634 TIP3 3464 TIP3 H2   HT            0.417         1.008       0
   10635 TIP3 3465 TIP3 OH2  OT           -0.834       15.9994       0
   10636 TIP3 3465 TIP3 H1   HT            0.417         1.008       0
   10637 TIP3 3465 TIP3 H2   HT            0.417         1.008       0
   10638 TIP3 3466 TIP3 OH2  OT           -0.834       15.9994       0
   10639 TIP3 3466 TIP3 H1   HT            0.417         1.008       0
   10640 TIP3 3466 TIP3 H2   HT            0.417         1.008       0
   10641 TIP3 3467 TIP3 OH2  OT           -0.834       15.9994       0
   10642 TIP3 3467 TIP3 H1   HT            0.417         1.008       0
   10643 TIP3 3467 TIP3 H2   HT            0.417         1.008       0
   10644 TIP3 3468 TIP3 OH2  OT           -0.834       15.9994       0
   10645 TIP3 3468 TIP3 H1   HT            0.417         1.008       0
   10646 TIP3 3468 TIP3 H2   HT            0.417         1.008       0
   10647 TIP3 3469 TIP3 OH2  OT           -0.834       15.9994       0
   10648 TIP3 3469 TIP3 H1   HT            0.417         1.008       0
   10649 TIP3 3469 TIP3 H2   HT            0.417         1.008       0
   10650 TIP3 3470 TIP3 OH2  OT           -0.834       15.9994       0
   10651 TIP3 3470 TIP3 H1   HT            0.417         1.008       0
   10652 TIP3 3470 TIP3 H2   HT            0.417         1.008       0
   10653 TIP3 3471 TIP3 OH2  OT           -0.834       15.9994       0
   10654 TIP3 3471 TIP3 H1   HT            0.417         1.008       0
   10655 TIP3 3471 TIP3 H2   HT            0.417         1.008       0
   10656 TIP3 3472 TIP3 OH2  OT           -0.834       15.9994       0
   10657 TIP3 3472 TIP3 H1   HT            0.417         1.008       0
   10658 TIP3 3472 TIP3 H2   HT            0.417         1.008       0
   10659 TIP3 3473 TIP3 OH2  OT           -0.834       15.9994       0
   10660 TIP3 3473 TIP3 H1   HT            0.417         1.008       0
   10661 TIP3 3473 TIP3 H2   HT            0.417         1.008       0
   10662 TIP3 3474 TIP3 OH2  OT           -0.834       15.9994       0
   10663 TIP3 3474 TIP3 H1   HT            0.417         1.008       0
   10664 TIP3 3474 TIP3 H2   HT            0.417         1.008       0
   10665 TIP3 3475 TIP3 OH2  OT           -0.834       15.9994       0
   10666 TIP3 3475 TIP3 H1   HT            0.417         1.008       0
   10667 TIP3 3475 TIP3 H2   HT            0.417         1.008       0
   10668 TIP3 3476 TIP3 OH2  OT           -0.834       15.9994       0
   10669 TIP3 3476 TIP3 H1   HT            0.417         1.008       0
   10670 TIP3 3476 TIP3 H2   HT            0.417         1.008       0
   10671 TIP3 3477 TIP3 OH2  OT           -0.834       15.9994       0
   10672 TIP3 3477 TIP3 H1   HT            0.417         1.008       0
   10673 TIP3 3477 TIP3 H2   HT            0.417         1.008       0
   10674 TIP3 3478 TIP3 OH2  OT           -0.834       15.9994       0
   10675 TIP3 3478 TIP3 H1   HT            0.417         1.008       0
   10676 TIP3 3478 TIP3 H2   HT            0.417         1.008       0
   10677 TIP3 3479 TIP3 OH2  OT           -0.834       15.9994       0
   10678 TIP3 3479 TIP3 H1   HT            0.417         1.008       0
   10679 TIP3 3479 TIP3 H2   HT            0.417         1.008       0
   10680 TIP3 3480 TIP3 OH2  OT           -0.834       15.9994       0
   10681 TIP3 3480 TIP3 H1   HT            0.417         1.008       0
   10682 TIP3 3480 TIP3 H2   HT            0.417         1.008       0
   10683 TIP3 3481 TIP3 OH2  OT           -0.834       15.9994       0
   10684 TIP3 3481 TIP3 H1   HT            0.417         1.008       0
   10685 TIP3 3481 TIP3 H2   HT            0.417         1.008       0
   10686 TIP3 3482 TIP3 OH2  OT           -0.834       15.9994       0
   10687 TIP3 3482 TIP3 H1   HT            0.417         1.008       0
   10688 TIP3 3482 TIP3 H2   HT            0.417         1.008       0
   10689 TIP3 3483 TIP3 OH2  OT           -0.834       15.9994       0
   10690 TIP3 3483 TIP3 H1   HT            0.417         1.008       0
   10691 TIP3 3483 TIP3 H2   HT            0.417         1.008       0
   10692 TIP3 3484 TIP3 OH2  OT           -0.834       15.9994       0
   10693 TIP3 3484 TIP3 H1   HT            0.417         1.008       0
   10694 TIP3 3484 TIP3 H2   HT            0.417         1.008       0
   10695 TIP3 3485 TIP3 OH2  OT           -0.834       15.9994       0
   10696 TIP3 3485 TIP3 H1   HT            0.417         1.008       0
   10697 TIP3 3485 TIP3 H2   HT            0.417         1.008       0
   10698 TIP3 3486 TIP3 OH2  OT           -0.834       15.9994       0
   10699 TIP3 3486 TIP3 H1   HT            0.417         1.008       0
   10700 TIP3 3486 TIP3 H2   HT            0.417         1.008       0
   10701 TIP3 3487 TIP3 OH2  OT           -0.834       15.9994       0
   10702 TIP3 3487 TIP3 H1   HT            0.417         1.008       0
   10703 TIP3 3487 TIP3 H2   HT            0.417         1.008       0
   10704 TIP3 3488 TIP3 OH2  OT           -0.834       15.9994       0
   10705 TIP3 3488 TIP3 H1   HT            0.417         1.008       0
   10706 TIP3 3488 TIP3 H2   HT            0.417         1.008       0
   10707 TIP3 3489 TIP3 OH2  OT           -0.834       15.9994       0
   10708 TIP3 3489 TIP3 H1   HT            0.417         1.008       0
   10709 TIP3 3489 TIP3 H2   HT            0.417         1.008       0
   10710 TIP3 3490 TIP3 OH2  OT           -0.834       15.9994       0
   10711 TIP3 3490 TIP3 H1   HT            0.417         1.008       0
   10712 TIP3 3490 TIP3 H2   HT            0.417         1.008       0
   10713 TIP3 3491 TIP3 OH2  OT           -0.834       15.9994       0
   10714 TIP3 3491 TIP3 H1   HT            0.417         1.008       0
   10715 TIP3 3491 TIP3 H2   HT            0.417         1.008       0
   10716 TIP3 3492 TIP3 OH2  OT           -0.834       15.9994       0
   10717 TIP3 3492 TIP3 H1   HT            0.417         1.008       0
   10718 TIP3 3492 TIP3 H2   HT            0.417         1.008       0
   10719 TIP3 3493 TIP3 OH2  OT           -0.834       15.9994       0
   10720 TIP3 3493 TIP3 H1   HT            0.417         1.008       0
   10721 TIP3 3493 TIP3 H2   HT            0.417         1.008       0
   10722 TIP3 3494 TIP3 OH2  OT           -0.834       15.9994       0
   10723 TIP3 3494 TIP3 H1   HT            0.417         1.008       0
   10724 TIP3 3494 TIP3 H2   HT            0.417         1.008       0
   10725 TIP3 3495 TIP3 OH2  OT           -0.834       15.9994       0
   10726 TIP3 3495 TIP3 H1   HT            0.417         1.008       0
   10727 TIP3 3495 TIP3 H2   HT            0.417         1.008       0
   10728 TIP3 3496 TIP3 OH2  OT           -0.834       15.9994       0
   10729 TIP3 3496 TIP3 H1   HT            0.417         1.008       0
   10730 TIP3 3496 TIP3 H2   HT            0.417         1.008       0
   10731 TIP3 3497 TIP3 OH2  OT           -0.834       15.9994       0
   10732 TIP3 3497 TIP3 H1   HT            0.417         1.008       0
   10733 TIP3 3497 TIP3 H2   HT            0.417         1.008       0
   10734 TIP3 3498 TIP3 OH2  OT           -0.834       15.9994       0
   10735 TIP3 3498 TIP3 H1   HT            0.417         1.008       0
   10736 TIP3 3498 TIP3 H2   HT            0.417         1.008       0
   10737 TIP3 3499 TIP3 OH2  OT           -0.834       15.9994       0
   10738 TIP3 3499 TIP3 H1   HT            0.417         1.008       0
   10739 TIP3 3499 TIP3 H2   HT            0.417         1.008       0
   10740 TIP3 3500 TIP3 OH2  OT           -0.834       15.9994       0
   10741 TIP3 3500 TIP3 H1   HT            0.417         1.008       0
   10742 TIP3 3500 TIP3 H2   HT            0.417         1.008       0
   10743 TIP3 3501 TIP3 OH2  OT           -0.834       15.9994       0
   10744 TIP3 3501 TIP3 H1   HT            0.417         1.008       0
   10745 TIP3 3501 TIP3 H2   HT            0.417         1.008       0
   10746 TIP3 3502 TIP3 OH2  OT           -0.834       15.9994       0
   10747 TIP3 3502 TIP3 H1   HT            0.417         1.008       0
   10748 TIP3 3502 TIP3 H2   HT            0.417         1.008       0
   10749 TIP3 3503 TIP3 OH2  OT           -0.834       15.9994       0
   10750 TIP3 3503 TIP3 H1   HT            0.417         1.008       0
   10751 TIP3 3503 TIP3 H2   HT            0.417         1.008       0
   10752 TIP3 3504 TIP3 OH2  OT           -0.834       15.9994       0
   10753 TIP3 3504 TIP3 H1   HT            0.417         1.008       0
   10754 TIP3 3504 TIP3 H2   HT            0.417         1.008       0
   10755 TIP3 3505 TIP3 OH2  OT           -0.834       15.9994       0
   10756 TIP3 3505 TIP3 H1   HT            0.417         1.008       0
   10757 TIP3 3505 TIP3 H2   HT            0.417         1.008       0
   10758 TIP3 3506 TIP3 OH2  OT           -0.834       15.9994       0
   10759 TIP3 3506 TIP3 H1   HT            0.417         1.008       0
   10760 TIP3 3506 TIP3 H2   HT            0.417         1.008       0
   10761 TIP3 3507 TIP3 OH2  OT           -0.834       15.9994       0
   10762 TIP3 3507 TIP3 H1   HT            0.417         1.008       0
   10763 TIP3 3507 TIP3 H2   HT            0.417         1.008       0
   10764 TIP3 3508 TIP3 OH2  OT           -0.834       15.9994       0
   10765 TIP3 3508 TIP3 H1   HT            0.417         1.008       0
   10766 TIP3 3508 TIP3 H2   HT            0.417         1.008       0
   10767 TIP3 3509 TIP3 OH2  OT           -0.834       15.9994       0
   10768 TIP3 3509 TIP3 H1   HT            0.417         1.008       0
   10769 TIP3 3509 TIP3 H2   HT            0.417         1.008       0
   10770 TIP3 3510 TIP3 OH2  OT           -0.834       15.9994       0
   10771 TIP3 3510 TIP3 H1   HT            0.417         1.008       0
   10772 TIP3 3510 TIP3 H2   HT            0.417         1.008       0
   10773 TIP3 3511 TIP3 OH2  OT           -0.834       15.9994       0
   10774 TIP3 3511 TIP3 H1   HT            0.417         1.008       0
   10775 TIP3 3511 TIP3 H2   HT            0.417         1.008       0
   10776 TIP3 3512 TIP3 OH2  OT           -0.834       15.9994       0
   10777 TIP3 3512 TIP3 H1   HT            0.417         1.008       0
   10778 TIP3 3512 TIP3 H2   HT            0.417         1.008       0
   10779 TIP3 3513 TIP3 OH2  OT           -0.834       15.9994       0
   10780 TIP3 3513 TIP3 H1   HT            0.417         1.008       0
   10781 TIP3 3513 TIP3 H2   HT            0.417         1.008       0
   10782 TIP3 3514 TIP3 OH2  OT           -0.834       15.9994       0
   10783 TIP3 3514 TIP3 H1   HT            0.417         1.008       0
   10784 TIP3 3514 TIP3 H2   HT            0.417         1.008       0
   10785 TIP3 3515 TIP3 OH2  OT           -0.834       15.9994       0
   10786 TIP3 3515 TIP3 H1   HT            0.417         1.008       0
   10787 TIP3 3515 TIP3 H2   HT            0.417         1.008       0
   10788 TIP3 3516 TIP3 OH2  OT           -0.834       15.9994       0
   10789 TIP3 3516 TIP3 H1   HT            0.417         1.008       0
   10790 TIP3 3516 TIP3 H2   HT            0.417         1.008       0
   10791 TIP3 3517 TIP3 OH2  OT           -0.834       15.9994       0
   10792 TIP3 3517 TIP3 H1   HT            0.417         1.008       0
   10793 TIP3 3517 TIP3 H2   HT            0.417         1.008       0
   10794 TIP3 3518 TIP3 OH2  OT           -0.834       15.9994       0
   10795 TIP3 3518 TIP3 H1   HT            0.417         1.008       0
   10796 TIP3 3518 TIP3 H2   HT            0.417         1.008       0
   10797 TIP3 3519 TIP3 OH2  OT           -0.834       15.9994       0
   10798 TIP3 3519 TIP3 H1   HT            0.417         1.008       0
   10799 TIP3 3519 TIP3 H2   HT            0.417         1.008       0
   10800 TIP3 3520 TIP3 OH2  OT           -0.834       15.9994       0
   10801 TIP3 3520 TIP3 H1   HT            0.417         1.008       0
   10802 TIP3 3520 TIP3 H2   HT            0.417         1.008       0
   10803 TIP3 3521 TIP3 OH2  OT           -0.834       15.9994       0
   10804 TIP3 3521 TIP3 H1   HT            0.417         1.008       0
   10805 TIP3 3521 TIP3 H2   HT            0.417         1.008       0
   10806 TIP3 3522 TIP3 OH2  OT           -0.834       15.9994       0
   10807 TIP3 3522 TIP3 H1   HT            0.417         1.008       0
   10808 TIP3 3522 TIP3 H2   HT            0.417         1.008       0
   10809 TIP3 3523 TIP3 OH2  OT           -0.834       15.9994       0
   10810 TIP3 3523 TIP3 H1   HT            0.417         1.008       0
   10811 TIP3 3523 TIP3 H2   HT            0.417         1.008       0
   10812 TIP3 3524 TIP3 OH2  OT           -0.834       15.9994       0
   10813 TIP3 3524 TIP3 H1   HT            0.417         1.008       0
   10814 TIP3 3524 TIP3 H2   HT            0.417         1.008       0
   10815 TIP3 3525 TIP3 OH2  OT           -0.834       15.9994       0
   10816 TIP3 3525 TIP3 H1   HT            0.417         1.008       0
   10817 TIP3 3525 TIP3 H2   HT            0.417         1.008       0
   10818 TIP3 3526 TIP3 OH2  OT           -0.834       15.9994       0
   10819 TIP3 3526 TIP3 H1   HT            0.417         1.008       0
   10820 TIP3 3526 TIP3 H2   HT            0.417         1.008       0
   10821 TIP3 3527 TIP3 OH2  OT           -0.834       15.9994       0
   10822 TIP3 3527 TIP3 H1   HT            0.417         1.008       0
   10823 TIP3 3527 TIP3 H2   HT            0.417         1.008       0
   10824 TIP3 3528 TIP3 OH2  OT           -0.834       15.9994       0
   10825 TIP3 3528 TIP3 H1   HT            0.417         1.008       0
   10826 TIP3 3528 TIP3 H2   HT            0.417         1.008       0
   10827 TIP3 3529 TIP3 OH2  OT           -0.834       15.9994       0
   10828 TIP3 3529 TIP3 H1   HT            0.417         1.008       0
   10829 TIP3 3529 TIP3 H2   HT            0.417         1.008       0
   10830 TIP3 3530 TIP3 OH2  OT           -0.834       15.9994       0
   10831 TIP3 3530 TIP3 H1   HT            0.417         1.008       0
   10832 TIP3 3530 TIP3 H2   HT            0.417         1.008       0
   10833 TIP3 3531 TIP3 OH2  OT           -0.834       15.9994       0
   10834 TIP3 3531 TIP3 H1   HT            0.417         1.008       0
   10835 TIP3 3531 TIP3 H2   HT            0.417         1.008       0
   10836 TIP3 3532 TIP3 OH2  OT           -0.834       15.9994       0
   10837 TIP3 3532 TIP3 H1   HT            0.417         1.008       0
   10838 TIP3 3532 TIP3 H2   HT            0.417         1.008       0
   10839 TIP3 3533 TIP3 OH2  OT           -0.834       15.9994       0
   10840 TIP3 3533 TIP3 H1   HT            0.417         1.008       0
   10841 TIP3 3533 TIP3 H2   HT            0.417         1.008       0
   10842 TIP3 3534 TIP3 OH2  OT           -0.834       15.9994       0
   10843 TIP3 3534 TIP3 H1   HT            0.417         1.008       0
   10844 TIP3 3534 TIP3 H2   HT            0.417         1.008       0
   10845 TIP3 3535 TIP3 OH2  OT           -0.834       15.9994       0
   10846 TIP3 3535 TIP3 H1   HT            0.417         1.008       0
   10847 TIP3 3535 TIP3 H2   HT            0.417         1.008       0
   10848 TIP3 3536 TIP3 OH2  OT           -0.834       15.9994       0
   10849 TIP3 3536 TIP3 H1   HT            0.417         1.008       0
   10850 TIP3 3536 TIP3 H2   HT            0.417         1.008       0
   10851 TIP3 3537 TIP3 OH2  OT           -0.834       15.9994       0
   10852 TIP3 3537 TIP3 H1   HT            0.417         1.008       0
   10853 TIP3 3537 TIP3 H2   HT            0.417         1.008       0
   10854 TIP3 3538 TIP3 OH2  OT           -0.834       15.9994       0
   10855 TIP3 3538 TIP3 H1   HT            0.417         1.008       0
   10856 TIP3 3538 TIP3 H2   HT            0.417         1.008       0
   10857 TIP3 3539 TIP3 OH2  OT           -0.834       15.9994       0
   10858 TIP3 3539 TIP3 H1   HT            0.417         1.008       0
   10859 TIP3 3539 TIP3 H2   HT            0.417         1.008       0
   10860 TIP3 3540 TIP3 OH2  OT           -0.834       15.9994       0
   10861 TIP3 3540 TIP3 H1   HT            0.417         1.008       0
   10862 TIP3 3540 TIP3 H2   HT            0.417         1.008       0
   10863 TIP3 3541 TIP3 OH2  OT           -0.834       15.9994       0
   10864 TIP3 3541 TIP3 H1   HT            0.417         1.008       0
   10865 TIP3 3541 TIP3 H2   HT            0.417         1.008       0
   10866 TIP3 3542 TIP3 OH2  OT           -0.834       15.9994       0
   10867 TIP3 3542 TIP3 H1   HT            0.417         1.008       0
   10868 TIP3 3542 TIP3 H2   HT            0.417         1.008       0
   10869 TIP3 3543 TIP3 OH2  OT           -0.834       15.9994       0
   10870 TIP3 3543 TIP3 H1   HT            0.417         1.008       0
   10871 TIP3 3543 TIP3 H2   HT            0.417         1.008       0
   10872 TIP3 3544 TIP3 OH2  OT           -0.834       15.9994       0
   10873 TIP3 3544 TIP3 H1   HT            0.417         1.008       0
   10874 TIP3 3544 TIP3 H2   HT            0.417         1.008       0
   10875 TIP3 3545 TIP3 OH2  OT           -0.834       15.9994       0
   10876 TIP3 3545 TIP3 H1   HT            0.417         1.008       0
   10877 TIP3 3545 TIP3 H2   HT            0.417         1.008       0
   10878 TIP3 3546 TIP3 OH2  OT           -0.834       15.9994       0
   10879 TIP3 3546 TIP3 H1   HT            0.417         1.008       0
   10880 TIP3 3546 TIP3 H2   HT            0.417         1.008       0
   10881 TIP3 3547 TIP3 OH2  OT           -0.834       15.9994       0
   10882 TIP3 3547 TIP3 H1   HT            0.417         1.008       0
   10883 TIP3 3547 TIP3 H2   HT            0.417         1.008       0
   10884 TIP3 3548 TIP3 OH2  OT           -0.834       15.9994       0
   10885 TIP3 3548 TIP3 H1   HT            0.417         1.008       0
   10886 TIP3 3548 TIP3 H2   HT            0.417         1.008       0
   10887 TIP3 3549 TIP3 OH2  OT           -0.834       15.9994       0
   10888 TIP3 3549 TIP3 H1   HT            0.417         1.008       0
   10889 TIP3 3549 TIP3 H2   HT            0.417         1.008       0
   10890 TIP3 3550 TIP3 OH2  OT           -0.834       15.9994       0
   10891 TIP3 3550 TIP3 H1   HT            0.417         1.008       0
   10892 TIP3 3550 TIP3 H2   HT            0.417         1.008       0
   10893 TIP3 3551 TIP3 OH2  OT           -0.834       15.9994       0
   10894 TIP3 3551 TIP3 H1   HT            0.417         1.008       0
   10895 TIP3 3551 TIP3 H2   HT            0.417         1.008       0
   10896 TIP3 3552 TIP3 OH2  OT           -0.834       15.9994       0
   10897 TIP3 3552 TIP3 H1   HT            0.417         1.008       0
   10898 TIP3 3552 TIP3 H2   HT            0.417         1.008       0
   10899 TIP3 3553 TIP3 OH2  OT           -0.834       15.9994       0
   10900 TIP3 3553 TIP3 H1   HT            0.417         1.008       0
   10901 TIP3 3553 TIP3 H2   HT            0.417         1.008       0
   10902 TIP3 3554 TIP3 OH2  OT           -0.834       15.9994       0
   10903 TIP3 3554 TIP3 H1   HT            0.417         1.008       0
   10904 TIP3 3554 TIP3 H2   HT            0.417         1.008       0
   10905 TIP3 3555 TIP3 OH2  OT           -0.834       15.9994       0
   10906 TIP3 3555 TIP3 H1   HT            0.417         1.008       0
   10907 TIP3 3555 TIP3 H2   HT            0.417         1.008       0
   10908 TIP3 3556 TIP3 OH2  OT           -0.834       15.9994       0
   10909 TIP3 3556 TIP3 H1   HT            0.417         1.008       0
   10910 TIP3 3556 TIP3 H2   HT            0.417         1.008       0
   10911 TIP3 3557 TIP3 OH2  OT           -0.834       15.9994       0
   10912 TIP3 3557 TIP3 H1   HT            0.417         1.008       0
   10913 TIP3 3557 TIP3 H2   HT            0.417         1.008       0
   10914 TIP3 3558 TIP3 OH2  OT           -0.834       15.9994       0
   10915 TIP3 3558 TIP3 H1   HT            0.417         1.008       0
   10916 TIP3 3558 TIP3 H2   HT            0.417         1.008       0
   10917 TIP3 3559 TIP3 OH2  OT           -0.834       15.9994       0
   10918 TIP3 3559 TIP3 H1   HT            0.417         1.008       0
   10919 TIP3 3559 TIP3 H2   HT            0.417         1.008       0
   10920 TIP3 3560 TIP3 OH2  OT           -0.834       15.9994       0
   10921 TIP3 3560 TIP3 H1   HT            0.417         1.008       0
   10922 TIP3 3560 TIP3 H2   HT            0.417         1.008       0
   10923 TIP3 3561 TIP3 OH2  OT           -0.834       15.9994       0
   10924 TIP3 3561 TIP3 H1   HT            0.417         1.008       0
   10925 TIP3 3561 TIP3 H2   HT            0.417         1.008       0
   10926 TIP3 3562 TIP3 OH2  OT           -0.834       15.9994       0
   10927 TIP3 3562 TIP3 H1   HT            0.417         1.008       0
   10928 TIP3 3562 TIP3 H2   HT            0.417         1.008       0
   10929 TIP3 3563 TIP3 OH2  OT           -0.834       15.9994       0
   10930 TIP3 3563 TIP3 H1   HT            0.417         1.008       0
   10931 TIP3 3563 TIP3 H2   HT            0.417         1.008       0
   10932 TIP3 3564 TIP3 OH2  OT           -0.834       15.9994       0
   10933 TIP3 3564 TIP3 H1   HT            0.417         1.008       0
   10934 TIP3 3564 TIP3 H2   HT            0.417         1.008       0
   10935 TIP3 3565 TIP3 OH2  OT           -0.834       15.9994       0
   10936 TIP3 3565 TIP3 H1   HT            0.417         1.008       0
   10937 TIP3 3565 TIP3 H2   HT            0.417         1.008       0
   10938 TIP3 3566 TIP3 OH2  OT           -0.834       15.9994       0
   10939 TIP3 3566 TIP3 H1   HT            0.417         1.008       0
   10940 TIP3 3566 TIP3 H2   HT            0.417         1.008       0
   10941 TIP3 3567 TIP3 OH2  OT           -0.834       15.9994       0
   10942 TIP3 3567 TIP3 H1   HT            0.417         1.008       0
   10943 TIP3 3567 TIP3 H2   HT            0.417         1.008       0
   10944 TIP3 3568 TIP3 OH2  OT           -0.834       15.9994       0
   10945 TIP3 3568 TIP3 H1   HT            0.417         1.008       0
   10946 TIP3 3568 TIP3 H2   HT            0.417         1.008       0
   10947 TIP3 3569 TIP3 OH2  OT           -0.834       15.9994       0
   10948 TIP3 3569 TIP3 H1   HT            0.417         1.008       0
   10949 TIP3 3569 TIP3 H2   HT            0.417         1.008       0
   10950 TIP3 3570 TIP3 OH2  OT           -0.834       15.9994       0
   10951 TIP3 3570 TIP3 H1   HT            0.417         1.008       0
   10952 TIP3 3570 TIP3 H2   HT            0.417         1.008       0
   10953 TIP3 3571 TIP3 OH2  OT           -0.834       15.9994       0
   10954 TIP3 3571 TIP3 H1   HT            0.417         1.008       0
   10955 TIP3 3571 TIP3 H2   HT            0.417         1.008       0
   10956 TIP3 3572 TIP3 OH2  OT           -0.834       15.9994       0
   10957 TIP3 3572 TIP3 H1   HT            0.417         1.008       0
   10958 TIP3 3572 TIP3 H2   HT            0.417         1.008       0
   10959 TIP3 3573 TIP3 OH2  OT           -0.834       15.9994       0
   10960 TIP3 3573 TIP3 H1   HT            0.417         1.008       0
   10961 TIP3 3573 TIP3 H2   HT            0.417         1.008       0
   10962 TIP3 3574 TIP3 OH2  OT           -0.834       15.9994       0
   10963 TIP3 3574 TIP3 H1   HT            0.417         1.008       0
   10964 TIP3 3574 TIP3 H2   HT            0.417         1.008       0
   10965 TIP3 3575 TIP3 OH2  OT           -0.834       15.9994       0
   10966 TIP3 3575 TIP3 H1   HT            0.417         1.008       0
   10967 TIP3 3575 TIP3 H2   HT            0.417         1.008       0
   10968 TIP3 3576 TIP3 OH2  OT           -0.834       15.9994       0
   10969 TIP3 3576 TIP3 H1   HT            0.417         1.008       0
   10970 TIP3 3576 TIP3 H2   HT            0.417         1.008       0
   10971 TIP3 3577 TIP3 OH2  OT           -0.834       15.9994       0
   10972 TIP3 3577 TIP3 H1   HT            0.417         1.008       0
   10973 TIP3 3577 TIP3 H2   HT            0.417         1.008       0
   10974 TIP3 3578 TIP3 OH2  OT           -0.834       15.9994       0
   10975 TIP3 3578 TIP3 H1   HT            0.417         1.008       0
   10976 TIP3 3578 TIP3 H2   HT            0.417         1.008       0
   10977 TIP3 3579 TIP3 OH2  OT           -0.834       15.9994       0
   10978 TIP3 3579 TIP3 H1   HT            0.417         1.008       0
   10979 TIP3 3579 TIP3 H2   HT            0.417         1.008       0
   10980 TIP3 3580 TIP3 OH2  OT           -0.834       15.9994       0
   10981 TIP3 3580 TIP3 H1   HT            0.417         1.008       0
   10982 TIP3 3580 TIP3 H2   HT            0.417         1.008       0
   10983 TIP3 3581 TIP3 OH2  OT           -0.834       15.9994       0
   10984 TIP3 3581 TIP3 H1   HT            0.417         1.008       0
   10985 TIP3 3581 TIP3 H2   HT            0.417         1.008       0
   10986 TIP3 3582 TIP3 OH2  OT           -0.834       15.9994       0
   10987 TIP3 3582 TIP3 H1   HT            0.417         1.008       0
   10988 TIP3 3582 TIP3 H2   HT            0.417         1.008       0
   10989 TIP3 3583 TIP3 OH2  OT           -0.834       15.9994       0
   10990 TIP3 3583 TIP3 H1   HT            0.417         1.008       0
   10991 TIP3 3583 TIP3 H2   HT            0.417         1.008       0
   10992 TIP3 3584 TIP3 OH2  OT           -0.834       15.9994       0
   10993 TIP3 3584 TIP3 H1   HT            0.417         1.008       0
   10994 TIP3 3584 TIP3 H2   HT            0.417         1.008       0
   10995 TIP3 3585 TIP3 OH2  OT           -0.834       15.9994       0
   10996 TIP3 3585 TIP3 H1   HT            0.417         1.008       0
   10997 TIP3 3585 TIP3 H2   HT            0.417         1.008       0
   10998 TIP3 3586 TIP3 OH2  OT           -0.834       15.9994       0
   10999 TIP3 3586 TIP3 H1   HT            0.417         1.008       0
   11000 TIP3 3586 TIP3 H2   HT            0.417         1.008       0
   11001 TIP3 3587 TIP3 OH2  OT           -0.834       15.9994       0
   11002 TIP3 3587 TIP3 H1   HT            0.417         1.008       0
   11003 TIP3 3587 TIP3 H2   HT            0.417         1.008       0
   11004 TIP3 3588 TIP3 OH2  OT           -0.834       15.9994       0
   11005 TIP3 3588 TIP3 H1   HT            0.417         1.008       0
   11006 TIP3 3588 TIP3 H2   HT            0.417         1.008       0
   11007 TIP3 3589 TIP3 OH2  OT           -0.834       15.9994       0
   11008 TIP3 3589 TIP3 H1   HT            0.417         1.008       0
   11009 TIP3 3589 TIP3 H2   HT            0.417         1.008       0
   11010 TIP3 3590 TIP3 OH2  OT           -0.834       15.9994       0
   11011 TIP3 3590 TIP3 H1   HT            0.417         1.008       0
   11012 TIP3 3590 TIP3 H2   HT            0.417         1.008       0
   11013 TIP3 3591 TIP3 OH2  OT           -0.834       15.9994       0
   11014 TIP3 3591 TIP3 H1   HT            0.417         1.008       0
   11015 TIP3 3591 TIP3 H2   HT            0.417         1.008       0
   11016 TIP3 3592 TIP3 OH2  OT           -0.834       15.9994       0
   11017 TIP3 3592 TIP3 H1   HT            0.417         1.008       0
   11018 TIP3 3592 TIP3 H2   HT            0.417         1.008       0
   11019 TIP3 3593 TIP3 OH2  OT           -0.834       15.9994       0
   11020 TIP3 3593 TIP3 H1   HT            0.417         1.008       0
   11021 TIP3 3593 TIP3 H2   HT            0.417         1.008       0
   11022 TIP3 3594 TIP3 OH2  OT           -0.834       15.9994       0
   11023 TIP3 3594 TIP3 H1   HT            0.417         1.008       0
   11024 TIP3 3594 TIP3 H2   HT            0.417         1.008       0
   11025 TIP3 3595 TIP3 OH2  OT           -0.834       15.9994       0
   11026 TIP3 3595 TIP3 H1   HT            0.417         1.008       0
   11027 TIP3 3595 TIP3 H2   HT            0.417         1.008       0
   11028 TIP3 3596 TIP3 OH2  OT           -0.834       15.9994       0
   11029 TIP3 3596 TIP3 H1   HT            0.417         1.008       0
   11030 TIP3 3596 TIP3 H2   HT            0.417         1.008       0
   11031 TIP3 3597 TIP3 OH2  OT           -0.834       15.9994       0
   11032 TIP3 3597 TIP3 H1   HT            0.417         1.008       0
   11033 TIP3 3597 TIP3 H2   HT            0.417         1.008       0
   11034 TIP3 3598 TIP3 OH2  OT           -0.834       15.9994       0
   11035 TIP3 3598 TIP3 H1   HT            0.417         1.008       0
   11036 TIP3 3598 TIP3 H2   HT            0.417         1.008       0
   11037 TIP3 3599 TIP3 OH2  OT           -0.834       15.9994       0
   11038 TIP3 3599 TIP3 H1   HT            0.417         1.008       0
   11039 TIP3 3599 TIP3 H2   HT            0.417         1.008       0
   11040 TIP3 3600 TIP3 OH2  OT           -0.834       15.9994       0
   11041 TIP3 3600 TIP3 H1   HT            0.417         1.008       0
   11042 TIP3 3600 TIP3 H2   HT            0.417         1.008       0
   11043 TIP3 3601 TIP3 OH2  OT           -0.834       15.9994       0
   11044 TIP3 3601 TIP3 H1   HT            0.417         1.008       0
   11045 TIP3 3601 TIP3 H2   HT            0.417         1.008       0
   11046 TIP3 3602 TIP3 OH2  OT           -0.834       15.9994       0
   11047 TIP3 3602 TIP3 H1   HT            0.417         1.008       0
   11048 TIP3 3602 TIP3 H2   HT            0.417         1.008       0
   11049 TIP3 3603 TIP3 OH2  OT           -0.834       15.9994       0
   11050 TIP3 3603 TIP3 H1   HT            0.417         1.008       0
   11051 TIP3 3603 TIP3 H2   HT            0.417         1.008       0
   11052 TIP3 3604 TIP3 OH2  OT           -0.834       15.9994       0
   11053 TIP3 3604 TIP3 H1   HT            0.417         1.008       0
   11054 TIP3 3604 TIP3 H2   HT            0.417         1.008       0
   11055 TIP3 3605 TIP3 OH2  OT           -0.834       15.9994       0
   11056 TIP3 3605 TIP3 H1   HT            0.417         1.008       0
   11057 TIP3 3605 TIP3 H2   HT            0.417         1.008       0
   11058 TIP3 3606 TIP3 OH2  OT           -0.834       15.9994       0
   11059 TIP3 3606 TIP3 H1   HT            0.417         1.008       0
   11060 TIP3 3606 TIP3 H2   HT            0.417         1.008       0
   11061 TIP3 3607 TIP3 OH2  OT           -0.834       15.9994       0
   11062 TIP3 3607 TIP3 H1   HT            0.417         1.008       0
   11063 TIP3 3607 TIP3 H2   HT            0.417         1.008       0
   11064 TIP3 3608 TIP3 OH2  OT           -0.834       15.9994       0
   11065 TIP3 3608 TIP3 H1   HT            0.417         1.008       0
   11066 TIP3 3608 TIP3 H2   HT            0.417         1.008       0
   11067 TIP3 3609 TIP3 OH2  OT           -0.834       15.9994       0
   11068 TIP3 3609 TIP3 H1   HT            0.417         1.008       0
   11069 TIP3 3609 TIP3 H2   HT            0.417         1.008       0
   11070 TIP3 3610 TIP3 OH2  OT           -0.834       15.9994       0
   11071 TIP3 3610 TIP3 H1   HT            0.417         1.008       0
   11072 TIP3 3610 TIP3 H2   HT            0.417         1.008       0
   11073 TIP3 3611 TIP3 OH2  OT           -0.834       15.9994       0
   11074 TIP3 3611 TIP3 H1   HT            0.417         1.008       0
   11075 TIP3 3611 TIP3 H2   HT            0.417         1.008       0
   11076 TIP3 3612 TIP3 OH2  OT           -0.834       15.9994       0
   11077 TIP3 3612 TIP3 H1   HT            0.417         1.008       0
   11078 TIP3 3612 TIP3 H2   HT            0.417         1.008       0
   11079 TIP3 3613 TIP3 OH2  OT           -0.834       15.9994       0
   11080 TIP3 3613 TIP3 H1   HT            0.417         1.008       0
   11081 TIP3 3613 TIP3 H2   HT            0.417         1.008       0
   11082 TIP3 3614 TIP3 OH2  OT           -0.834       15.9994       0
   11083 TIP3 3614 TIP3 H1   HT            0.417         1.008       0
   11084 TIP3 3614 TIP3 H2   HT            0.417         1.008       0
   11085 TIP3 3615 TIP3 OH2  OT           -0.834       15.9994       0
   11086 TIP3 3615 TIP3 H1   HT            0.417         1.008       0
   11087 TIP3 3615 TIP3 H2   HT            0.417         1.008       0
   11088 TIP3 3616 TIP3 OH2  OT           -0.834       15.9994       0
   11089 TIP3 3616 TIP3 H1   HT            0.417         1.008       0
   11090 TIP3 3616 TIP3 H2   HT            0.417         1.008       0
   11091 TIP3 3617 TIP3 OH2  OT           -0.834       15.9994       0
   11092 TIP3 3617 TIP3 H1   HT            0.417         1.008       0
   11093 TIP3 3617 TIP3 H2   HT            0.417         1.008       0
   11094 TIP3 3618 TIP3 OH2  OT           -0.834       15.9994       0
   11095 TIP3 3618 TIP3 H1   HT            0.417         1.008       0
   11096 TIP3 3618 TIP3 H2   HT            0.417         1.008       0
   11097 TIP3 3619 TIP3 OH2  OT           -0.834       15.9994       0
   11098 TIP3 3619 TIP3 H1   HT            0.417         1.008       0
   11099 TIP3 3619 TIP3 H2   HT            0.417         1.008       0
   11100 TIP3 3620 TIP3 OH2  OT           -0.834       15.9994       0
   11101 TIP3 3620 TIP3 H1   HT            0.417         1.008       0
   11102 TIP3 3620 TIP3 H2   HT            0.417         1.008       0
   11103 TIP3 3621 TIP3 OH2  OT           -0.834       15.9994       0
   11104 TIP3 3621 TIP3 H1   HT            0.417         1.008       0
   11105 TIP3 3621 TIP3 H2   HT            0.417         1.008       0
   11106 TIP3 3622 TIP3 OH2  OT           -0.834       15.9994       0
   11107 TIP3 3622 TIP3 H1   HT            0.417         1.008       0
   11108 TIP3 3622 TIP3 H2   HT            0.417         1.008       0
   11109 TIP3 3623 TIP3 OH2  OT           -0.834       15.9994       0
   11110 TIP3 3623 TIP3 H1   HT            0.417         1.008       0
   11111 TIP3 3623 TIP3 H2   HT            0.417         1.008       0
   11112 TIP3 3624 TIP3 OH2  OT           -0.834       15.9994       0
   11113 TIP3 3624 TIP3 H1   HT            0.417         1.008       0
   11114 TIP3 3624 TIP3 H2   HT            0.417         1.008       0
   11115 TIP3 3625 TIP3 OH2  OT           -0.834       15.9994       0
   11116 TIP3 3625 TIP3 H1   HT            0.417         1.008       0
   11117 TIP3 3625 TIP3 H2   HT            0.417         1.008       0
   11118 TIP3 3626 TIP3 OH2  OT           -0.834       15.9994       0
   11119 TIP3 3626 TIP3 H1   HT            0.417         1.008       0
   11120 TIP3 3626 TIP3 H2   HT            0.417         1.008       0
   11121 TIP3 3627 TIP3 OH2  OT           -0.834       15.9994       0
   11122 TIP3 3627 TIP3 H1   HT            0.417         1.008       0
   11123 TIP3 3627 TIP3 H2   HT            0.417         1.008       0
   11124 TIP3 3628 TIP3 OH2  OT           -0.834       15.9994       0
   11125 TIP3 3628 TIP3 H1   HT            0.417         1.008       0
   11126 TIP3 3628 TIP3 H2   HT            0.417         1.008       0
   11127 TIP3 3629 TIP3 OH2  OT           -0.834       15.9994       0
   11128 TIP3 3629 TIP3 H1   HT            0.417         1.008       0
   11129 TIP3 3629 TIP3 H2   HT            0.417         1.008       0
   11130 TIP3 3630 TIP3 OH2  OT           -0.834       15.9994       0
   11131 TIP3 3630 TIP3 H1   HT            0.417         1.008       0
   11132 TIP3 3630 TIP3 H2   HT            0.417         1.008       0
   11133 TIP3 3631 TIP3 OH2  OT           -0.834       15.9994       0
   11134 TIP3 3631 TIP3 H1   HT            0.417         1.008       0
   11135 TIP3 3631 TIP3 H2   HT            0.417         1.008       0
   11136 TIP3 3632 TIP3 OH2  OT           -0.834       15.9994       0
   11137 TIP3 3632 TIP3 H1   HT            0.417         1.008       0
   11138 TIP3 3632 TIP3 H2   HT            0.417         1.008       0
   11139 TIP3 3633 TIP3 OH2  OT           -0.834       15.9994       0
   11140 TIP3 3633 TIP3 H1   HT            0.417         1.008       0
   11141 TIP3 3633 TIP3 H2   HT            0.417         1.008       0
   11142 TIP3 3634 TIP3 OH2  OT           -0.834       15.9994       0
   11143 TIP3 3634 TIP3 H1   HT            0.417         1.008       0
   11144 TIP3 3634 TIP3 H2   HT            0.417         1.008       0
   11145 TIP3 3635 TIP3 OH2  OT           -0.834       15.9994       0
   11146 TIP3 3635 TIP3 H1   HT            0.417         1.008       0
   11147 TIP3 3635 TIP3 H2   HT            0.417         1.008       0
   11148 TIP3 3636 TIP3 OH2  OT           -0.834       15.9994       0
   11149 TIP3 3636 TIP3 H1   HT            0.417         1.008       0
   11150 TIP3 3636 TIP3 H2   HT            0.417         1.008       0
   11151 TIP3 3637 TIP3 OH2  OT           -0.834       15.9994       0
   11152 TIP3 3637 TIP3 H1   HT            0.417         1.008       0
   11153 TIP3 3637 TIP3 H2   HT            0.417         1.008       0
   11154 TIP3 3638 TIP3 OH2  OT           -0.834       15.9994       0
   11155 TIP3 3638 TIP3 H1   HT            0.417         1.008       0
   11156 TIP3 3638 TIP3 H2   HT            0.417         1.008       0
   11157 TIP3 3639 TIP3 OH2  OT           -0.834       15.9994       0
   11158 TIP3 3639 TIP3 H1   HT            0.417         1.008       0
   11159 TIP3 3639 TIP3 H2   HT            0.417         1.008       0
   11160 TIP3 3640 TIP3 OH2  OT           -0.834       15.9994       0
   11161 TIP3 3640 TIP3 H1   HT            0.417         1.008       0
   11162 TIP3 3640 TIP3 H2   HT            0.417         1.008       0
   11163 TIP3 3641 TIP3 OH2  OT           -0.834       15.9994       0
   11164 TIP3 3641 TIP3 H1   HT            0.417         1.008       0
   11165 TIP3 3641 TIP3 H2   HT            0.417         1.008       0
   11166 TIP3 3642 TIP3 OH2  OT           -0.834       15.9994       0
   11167 TIP3 3642 TIP3 H1   HT            0.417         1.008       0
   11168 TIP3 3642 TIP3 H2   HT            0.417         1.008       0
   11169 TIP3 3643 TIP3 OH2  OT           -0.834       15.9994       0
   11170 TIP3 3643 TIP3 H1   HT            0.417         1.008       0
   11171 TIP3 3643 TIP3 H2   HT            0.417         1.008       0
   11172 TIP3 3644 TIP3 OH2  OT           -0.834       15.9994       0
   11173 TIP3 3644 TIP3 H1   HT            0.417         1.008       0
   11174 TIP3 3644 TIP3 H2   HT            0.417         1.008       0
   11175 TIP3 3645 TIP3 OH2  OT           -0.834       15.9994       0
   11176 TIP3 3645 TIP3 H1   HT            0.417         1.008       0
   11177 TIP3 3645 TIP3 H2   HT            0.417         1.008       0
   11178 TIP3 3646 TIP3 OH2  OT           -0.834       15.9994       0
   11179 TIP3 3646 TIP3 H1   HT            0.417         1.008       0
   11180 TIP3 3646 TIP3 H2   HT            0.417         1.008       0
   11181 TIP3 3647 TIP3 OH2  OT           -0.834       15.9994       0
   11182 TIP3 3647 TIP3 H1   HT            0.417         1.008       0
   11183 TIP3 3647 TIP3 H2   HT            0.417         1.008       0
   11184 TIP3 3648 TIP3 OH2  OT           -0.834       15.9994       0
   11185 TIP3 3648 TIP3 H1   HT            0.417         1.008       0
   11186 TIP3 3648 TIP3 H2   HT            0.417         1.008       0
   11187 TIP3 3649 TIP3 OH2  OT           -0.834       15.9994       0
   11188 TIP3 3649 TIP3 H1   HT            0.417         1.008       0
   11189 TIP3 3649 TIP3 H2   HT            0.417         1.008       0
   11190 TIP3 3650 TIP3 OH2  OT           -0.834       15.9994       0
   11191 TIP3 3650 TIP3 H1   HT            0.417         1.008       0
   11192 TIP3 3650 TIP3 H2   HT            0.417         1.008       0
   11193 TIP3 3651 TIP3 OH2  OT           -0.834       15.9994       0
   11194 TIP3 3651 TIP3 H1   HT            0.417         1.008       0
   11195 TIP3 3651 TIP3 H2   HT            0.417         1.008       0
   11196 TIP3 3652 TIP3 OH2  OT           -0.834       15.9994       0
   11197 TIP3 3652 TIP3 H1   HT            0.417         1.008       0
   11198 TIP3 3652 TIP3 H2   HT            0.417         1.008       0
   11199 TIP3 3653 TIP3 OH2  OT           -0.834       15.9994       0
   11200 TIP3 3653 TIP3 H1   HT            0.417         1.008       0
   11201 TIP3 3653 TIP3 H2   HT            0.417         1.008       0
   11202 TIP3 3654 TIP3 OH2  OT           -0.834       15.9994       0
   11203 TIP3 3654 TIP3 H1   HT            0.417         1.008       0
   11204 TIP3 3654 TIP3 H2   HT            0.417         1.008       0
   11205 TIP3 3655 TIP3 OH2  OT           -0.834       15.9994       0
   11206 TIP3 3655 TIP3 H1   HT            0.417         1.008       0
   11207 TIP3 3655 TIP3 H2   HT            0.417         1.008       0
   11208 TIP3 3656 TIP3 OH2  OT           -0.834       15.9994       0
   11209 TIP3 3656 TIP3 H1   HT            0.417         1.008       0
   11210 TIP3 3656 TIP3 H2   HT            0.417         1.008       0
   11211 TIP3 3657 TIP3 OH2  OT           -0.834       15.9994       0
   11212 TIP3 3657 TIP3 H1   HT            0.417         1.008       0
   11213 TIP3 3657 TIP3 H2   HT            0.417         1.008       0
   11214 TIP3 3658 TIP3 OH2  OT           -0.834       15.9994       0
   11215 TIP3 3658 TIP3 H1   HT            0.417         1.008       0
   11216 TIP3 3658 TIP3 H2   HT            0.417         1.008       0
   11217 TIP3 3659 TIP3 OH2  OT           -0.834       15.9994       0
   11218 TIP3 3659 TIP3 H1   HT            0.417         1.008       0
   11219 TIP3 3659 TIP3 H2   HT            0.417         1.008       0
   11220 TIP3 3660 TIP3 OH2  OT           -0.834       15.9994       0
   11221 TIP3 3660 TIP3 H1   HT            0.417         1.008       0
   11222 TIP3 3660 TIP3 H2   HT            0.417         1.008       0
   11223 TIP3 3661 TIP3 OH2  OT           -0.834       15.9994       0
   11224 TIP3 3661 TIP3 H1   HT            0.417         1.008       0
   11225 TIP3 3661 TIP3 H2   HT            0.417         1.008       0
   11226 TIP3 3662 TIP3 OH2  OT           -0.834       15.9994       0
   11227 TIP3 3662 TIP3 H1   HT            0.417         1.008       0
   11228 TIP3 3662 TIP3 H2   HT            0.417         1.008       0
   11229 TIP3 3663 TIP3 OH2  OT           -0.834       15.9994       0
   11230 TIP3 3663 TIP3 H1   HT            0.417         1.008       0
   11231 TIP3 3663 TIP3 H2   HT            0.417         1.008       0
   11232 TIP3 3664 TIP3 OH2  OT           -0.834       15.9994       0
   11233 TIP3 3664 TIP3 H1   HT            0.417         1.008       0
   11234 TIP3 3664 TIP3 H2   HT            0.417         1.008       0
   11235 TIP3 3665 TIP3 OH2  OT           -0.834       15.9994       0
   11236 TIP3 3665 TIP3 H1   HT            0.417         1.008       0
   11237 TIP3 3665 TIP3 H2   HT            0.417         1.008       0
   11238 TIP3 3666 TIP3 OH2  OT           -0.834       15.9994       0
   11239 TIP3 3666 TIP3 H1   HT            0.417         1.008       0
   11240 TIP3 3666 TIP3 H2   HT            0.417         1.008       0
   11241 TIP3 3667 TIP3 OH2  OT           -0.834       15.9994       0
   11242 TIP3 3667 TIP3 H1   HT            0.417         1.008       0
   11243 TIP3 3667 TIP3 H2   HT            0.417         1.008       0
   11244 TIP3 3668 TIP3 OH2  OT           -0.834       15.9994       0
   11245 TIP3 3668 TIP3 H1   HT            0.417         1.008       0
   11246 TIP3 3668 TIP3 H2   HT            0.417         1.008       0
   11247 TIP3 3669 TIP3 OH2  OT           -0.834       15.9994       0
   11248 TIP3 3669 TIP3 H1   HT            0.417         1.008       0
   11249 TIP3 3669 TIP3 H2   HT            0.417         1.008       0
   11250 TIP3 3670 TIP3 OH2  OT           -0.834       15.9994       0
   11251 TIP3 3670 TIP3 H1   HT            0.417         1.008       0
   11252 TIP3 3670 TIP3 H2   HT            0.417         1.008       0
   11253 TIP3 3671 TIP3 OH2  OT           -0.834       15.9994       0
   11254 TIP3 3671 TIP3 H1   HT            0.417         1.008       0
   11255 TIP3 3671 TIP3 H2   HT            0.417         1.008       0
   11256 TIP3 3672 TIP3 OH2  OT           -0.834       15.9994       0
   11257 TIP3 3672 TIP3 H1   HT            0.417         1.008       0
   11258 TIP3 3672 TIP3 H2   HT            0.417         1.008       0
   11259 TIP3 3673 TIP3 OH2  OT           -0.834       15.9994       0
   11260 TIP3 3673 TIP3 H1   HT            0.417         1.008       0
   11261 TIP3 3673 TIP3 H2   HT            0.417         1.008       0
   11262 TIP3 3674 TIP3 OH2  OT           -0.834       15.9994       0
   11263 TIP3 3674 TIP3 H1   HT            0.417         1.008       0
   11264 TIP3 3674 TIP3 H2   HT            0.417         1.008       0
   11265 TIP3 3675 TIP3 OH2  OT           -0.834       15.9994       0
   11266 TIP3 3675 TIP3 H1   HT            0.417         1.008       0
   11267 TIP3 3675 TIP3 H2   HT            0.417         1.008       0
   11268 TIP3 3676 TIP3 OH2  OT           -0.834       15.9994       0
   11269 TIP3 3676 TIP3 H1   HT            0.417         1.008       0
   11270 TIP3 3676 TIP3 H2   HT            0.417         1.008       0
   11271 TIP3 3677 TIP3 OH2  OT           -0.834       15.9994       0
   11272 TIP3 3677 TIP3 H1   HT            0.417         1.008       0
   11273 TIP3 3677 TIP3 H2   HT            0.417         1.008       0
   11274 TIP3 3678 TIP3 OH2  OT           -0.834       15.9994       0
   11275 TIP3 3678 TIP3 H1   HT            0.417         1.008       0
   11276 TIP3 3678 TIP3 H2   HT            0.417         1.008       0
   11277 TIP3 3679 TIP3 OH2  OT           -0.834       15.9994       0
   11278 TIP3 3679 TIP3 H1   HT            0.417         1.008       0
   11279 TIP3 3679 TIP3 H2   HT            0.417         1.008       0
   11280 TIP3 3680 TIP3 OH2  OT           -0.834       15.9994       0
   11281 TIP3 3680 TIP3 H1   HT            0.417         1.008       0
   11282 TIP3 3680 TIP3 H2   HT            0.417         1.008       0
   11283 TIP3 3681 TIP3 OH2  OT           -0.834       15.9994       0
   11284 TIP3 3681 TIP3 H1   HT            0.417         1.008       0
   11285 TIP3 3681 TIP3 H2   HT            0.417         1.008       0
   11286 TIP3 3682 TIP3 OH2  OT           -0.834       15.9994       0
   11287 TIP3 3682 TIP3 H1   HT            0.417         1.008       0
   11288 TIP3 3682 TIP3 H2   HT            0.417         1.008       0
   11289 TIP3 3683 TIP3 OH2  OT           -0.834       15.9994       0
   11290 TIP3 3683 TIP3 H1   HT            0.417         1.008       0
   11291 TIP3 3683 TIP3 H2   HT            0.417         1.008       0
   11292 TIP3 3684 TIP3 OH2  OT           -0.834       15.9994       0
   11293 TIP3 3684 TIP3 H1   HT            0.417         1.008       0
   11294 TIP3 3684 TIP3 H2   HT            0.417         1.008       0
   11295 TIP3 3685 TIP3 OH2  OT           -0.834       15.9994       0
   11296 TIP3 3685 TIP3 H1   HT            0.417         1.008       0
   11297 TIP3 3685 TIP3 H2   HT            0.417         1.008       0
   11298 TIP3 3686 TIP3 OH2  OT           -0.834       15.9994       0
   11299 TIP3 3686 TIP3 H1   HT            0.417         1.008       0
   11300 TIP3 3686 TIP3 H2   HT            0.417         1.008       0
   11301 TIP3 3687 TIP3 OH2  OT           -0.834       15.9994       0
   11302 TIP3 3687 TIP3 H1   HT            0.417         1.008       0
   11303 TIP3 3687 TIP3 H2   HT            0.417         1.008       0
   11304 TIP3 3688 TIP3 OH2  OT           -0.834       15.9994       0
   11305 TIP3 3688 TIP3 H1   HT            0.417         1.008       0
   11306 TIP3 3688 TIP3 H2   HT            0.417         1.008       0
   11307 TIP3 3689 TIP3 OH2  OT           -0.834       15.9994       0
   11308 TIP3 3689 TIP3 H1   HT            0.417         1.008       0
   11309 TIP3 3689 TIP3 H2   HT            0.417         1.008       0
   11310 TIP3 3690 TIP3 OH2  OT           -0.834       15.9994       0
   11311 TIP3 3690 TIP3 H1   HT            0.417         1.008       0
   11312 TIP3 3690 TIP3 H2   HT            0.417         1.008       0
   11313 TIP3 3691 TIP3 OH2  OT           -0.834       15.9994       0
   11314 TIP3 3691 TIP3 H1   HT            0.417         1.008       0
   11315 TIP3 3691 TIP3 H2   HT            0.417         1.008       0
   11316 TIP3 3692 TIP3 OH2  OT           -0.834       15.9994       0
   11317 TIP3 3692 TIP3 H1   HT            0.417         1.008       0
   11318 TIP3 3692 TIP3 H2   HT            0.417         1.008       0
   11319 TIP3 3693 TIP3 OH2  OT           -0.834       15.9994       0
   11320 TIP3 3693 TIP3 H1   HT            0.417         1.008       0
   11321 TIP3 3693 TIP3 H2   HT            0.417         1.008       0
   11322 TIP3 3694 TIP3 OH2  OT           -0.834       15.9994       0
   11323 TIP3 3694 TIP3 H1   HT            0.417         1.008       0
   11324 TIP3 3694 TIP3 H2   HT            0.417         1.008       0
   11325 TIP3 3695 TIP3 OH2  OT           -0.834       15.9994       0
   11326 TIP3 3695 TIP3 H1   HT            0.417         1.008       0
   11327 TIP3 3695 TIP3 H2   HT            0.417         1.008       0
   11328 TIP3 3696 TIP3 OH2  OT           -0.834       15.9994       0
   11329 TIP3 3696 TIP3 H1   HT            0.417         1.008       0
   11330 TIP3 3696 TIP3 H2   HT            0.417         1.008       0
   11331 TIP3 3697 TIP3 OH2  OT           -0.834       15.9994       0
   11332 TIP3 3697 TIP3 H1   HT            0.417         1.008       0
   11333 TIP3 3697 TIP3 H2   HT            0.417         1.008       0
   11334 TIP3 3698 TIP3 OH2  OT           -0.834       15.9994       0
   11335 TIP3 3698 TIP3 H1   HT            0.417         1.008       0
   11336 TIP3 3698 TIP3 H2   HT            0.417         1.008       0
   11337 TIP3 3699 TIP3 OH2  OT           -0.834       15.9994       0
   11338 TIP3 3699 TIP3 H1   HT            0.417         1.008       0
   11339 TIP3 3699 TIP3 H2   HT            0.417         1.008       0
   11340 TIP3 3700 TIP3 OH2  OT           -0.834       15.9994       0
   11341 TIP3 3700 TIP3 H1   HT            0.417         1.008       0
   11342 TIP3 3700 TIP3 H2   HT            0.417         1.008       0
   11343 TIP3 3701 TIP3 OH2  OT           -0.834       15.9994       0
   11344 TIP3 3701 TIP3 H1   HT            0.417         1.008       0
   11345 TIP3 3701 TIP3 H2   HT            0.417         1.008       0
   11346 TIP3 3702 TIP3 OH2  OT           -0.834       15.9994       0
   11347 TIP3 3702 TIP3 H1   HT            0.417         1.008       0
   11348 TIP3 3702 TIP3 H2   HT            0.417         1.008       0
   11349 TIP3 3703 TIP3 OH2  OT           -0.834       15.9994       0
   11350 TIP3 3703 TIP3 H1   HT            0.417         1.008       0
   11351 TIP3 3703 TIP3 H2   HT            0.417         1.008       0
   11352 TIP3 3704 TIP3 OH2  OT           -0.834       15.9994       0
   11353 TIP3 3704 TIP3 H1   HT            0.417         1.008       0
   11354 TIP3 3704 TIP3 H2   HT            0.417         1.008       0
   11355 TIP3 3705 TIP3 OH2  OT           -0.834       15.9994       0
   11356 TIP3 3705 TIP3 H1   HT            0.417         1.008       0
   11357 TIP3 3705 TIP3 H2   HT            0.417         1.008       0
   11358 TIP3 3706 TIP3 OH2  OT           -0.834       15.9994       0
   11359 TIP3 3706 TIP3 H1   HT            0.417         1.008       0
   11360 TIP3 3706 TIP3 H2   HT            0.417         1.008       0
   11361 TIP3 3707 TIP3 OH2  OT           -0.834       15.9994       0
   11362 TIP3 3707 TIP3 H1   HT            0.417         1.008       0
   11363 TIP3 3707 TIP3 H2   HT            0.417         1.008       0
   11364 TIP3 3708 TIP3 OH2  OT           -0.834       15.9994       0
   11365 TIP3 3708 TIP3 H1   HT            0.417         1.008       0
   11366 TIP3 3708 TIP3 H2   HT            0.417         1.008       0
   11367 TIP3 3709 TIP3 OH2  OT           -0.834       15.9994       0
   11368 TIP3 3709 TIP3 H1   HT            0.417         1.008       0
   11369 TIP3 3709 TIP3 H2   HT            0.417         1.008       0
   11370 TIP3 3710 TIP3 OH2  OT           -0.834       15.9994       0
   11371 TIP3 3710 TIP3 H1   HT            0.417         1.008       0
   11372 TIP3 3710 TIP3 H2   HT            0.417         1.008       0
   11373 TIP3 3711 TIP3 OH2  OT           -0.834       15.9994       0
   11374 TIP3 3711 TIP3 H1   HT            0.417         1.008       0
   11375 TIP3 3711 TIP3 H2   HT            0.417         1.008       0
   11376 TIP3 3712 TIP3 OH2  OT           -0.834       15.9994       0
   11377 TIP3 3712 TIP3 H1   HT            0.417         1.008       0
   11378 TIP3 3712 TIP3 H2   HT            0.417         1.008       0
   11379 TIP3 3713 TIP3 OH2  OT           -0.834       15.9994       0
   11380 TIP3 3713 TIP3 H1   HT            0.417         1.008       0
   11381 TIP3 3713 TIP3 H2   HT            0.417         1.008       0
   11382 TIP3 3714 TIP3 OH2  OT           -0.834       15.9994       0
   11383 TIP3 3714 TIP3 H1   HT            0.417         1.008       0
   11384 TIP3 3714 TIP3 H2   HT            0.417         1.008       0
   11385 TIP3 3715 TIP3 OH2  OT           -0.834       15.9994       0
   11386 TIP3 3715 TIP3 H1   HT            0.417         1.008       0
   11387 TIP3 3715 TIP3 H2   HT            0.417         1.008       0
   11388 TIP3 3716 TIP3 OH2  OT           -0.834       15.9994       0
   11389 TIP3 3716 TIP3 H1   HT            0.417         1.008       0
   11390 TIP3 3716 TIP3 H2   HT            0.417         1.008       0
   11391 TIP3 3717 TIP3 OH2  OT           -0.834       15.9994       0
   11392 TIP3 3717 TIP3 H1   HT            0.417         1.008       0
   11393 TIP3 3717 TIP3 H2   HT            0.417         1.008       0
   11394 TIP3 3718 TIP3 OH2  OT           -0.834       15.9994       0
   11395 TIP3 3718 TIP3 H1   HT            0.417         1.008       0
   11396 TIP3 3718 TIP3 H2   HT            0.417         1.008       0
   11397 TIP3 3719 TIP3 OH2  OT           -0.834       15.9994       0
   11398 TIP3 3719 TIP3 H1   HT            0.417         1.008       0
   11399 TIP3 3719 TIP3 H2   HT            0.417         1.008       0
   11400 TIP3 3720 TIP3 OH2  OT           -0.834       15.9994       0
   11401 TIP3 3720 TIP3 H1   HT            0.417         1.008       0
   11402 TIP3 3720 TIP3 H2   HT            0.417         1.008       0
   11403 TIP3 3721 TIP3 OH2  OT           -0.834       15.9994       0
   11404 TIP3 3721 TIP3 H1   HT            0.417         1.008       0
   11405 TIP3 3721 TIP3 H2   HT            0.417         1.008       0
   11406 TIP3 3722 TIP3 OH2  OT           -0.834       15.9994       0
   11407 TIP3 3722 TIP3 H1   HT            0.417         1.008       0
   11408 TIP3 3722 TIP3 H2   HT            0.417         1.008       0
   11409 TIP3 3723 TIP3 OH2  OT           -0.834       15.9994       0
   11410 TIP3 3723 TIP3 H1   HT            0.417         1.008       0
   11411 TIP3 3723 TIP3 H2   HT            0.417         1.008       0
   11412 TIP3 3724 TIP3 OH2  OT           -0.834       15.9994       0
   11413 TIP3 3724 TIP3 H1   HT            0.417         1.008       0
   11414 TIP3 3724 TIP3 H2   HT            0.417         1.008       0
   11415 TIP3 3725 TIP3 OH2  OT           -0.834       15.9994       0
   11416 TIP3 3725 TIP3 H1   HT            0.417         1.008       0
   11417 TIP3 3725 TIP3 H2   HT            0.417         1.008       0
   11418 TIP3 3726 TIP3 OH2  OT           -0.834       15.9994       0
   11419 TIP3 3726 TIP3 H1   HT            0.417         1.008       0
   11420 TIP3 3726 TIP3 H2   HT            0.417         1.008       0
   11421 TIP3 3727 TIP3 OH2  OT           -0.834       15.9994       0
   11422 TIP3 3727 TIP3 H1   HT            0.417         1.008       0
   11423 TIP3 3727 TIP3 H2   HT            0.417         1.008       0
   11424 TIP3 3728 TIP3 OH2  OT           -0.834       15.9994       0
   11425 TIP3 3728 TIP3 H1   HT            0.417         1.008       0
   11426 TIP3 3728 TIP3 H2   HT            0.417         1.008       0
   11427 TIP3 3729 TIP3 OH2  OT           -0.834       15.9994       0
   11428 TIP3 3729 TIP3 H1   HT            0.417         1.008       0
   11429 TIP3 3729 TIP3 H2   HT            0.417         1.008       0
   11430 TIP3 3730 TIP3 OH2  OT           -0.834       15.9994       0
   11431 TIP3 3730 TIP3 H1   HT            0.417         1.008       0
   11432 TIP3 3730 TIP3 H2   HT            0.417         1.008       0
   11433 TIP3 3731 TIP3 OH2  OT           -0.834       15.9994       0
   11434 TIP3 3731 TIP3 H1   HT            0.417         1.008       0
   11435 TIP3 3731 TIP3 H2   HT            0.417         1.008       0
   11436 TIP3 3732 TIP3 OH2  OT           -0.834       15.9994       0
   11437 TIP3 3732 TIP3 H1   HT            0.417         1.008       0
   11438 TIP3 3732 TIP3 H2   HT            0.417         1.008       0
   11439 TIP3 3733 TIP3 OH2  OT           -0.834       15.9994       0
   11440 TIP3 3733 TIP3 H1   HT            0.417         1.008       0
   11441 TIP3 3733 TIP3 H2   HT            0.417         1.008       0
   11442 TIP3 3734 TIP3 OH2  OT           -0.834       15.9994       0
   11443 TIP3 3734 TIP3 H1   HT            0.417         1.008       0
   11444 TIP3 3734 TIP3 H2   HT            0.417         1.008       0
   11445 TIP3 3735 TIP3 OH2  OT           -0.834       15.9994       0
   11446 TIP3 3735 TIP3 H1   HT            0.417         1.008       0
   11447 TIP3 3735 TIP3 H2   HT            0.417         1.008       0
   11448 TIP3 3736 TIP3 OH2  OT           -0.834       15.9994       0
   11449 TIP3 3736 TIP3 H1   HT            0.417         1.008       0
   11450 TIP3 3736 TIP3 H2   HT            0.417         1.008       0
   11451 TIP3 3737 TIP3 OH2  OT           -0.834       15.9994       0
   11452 TIP3 3737 TIP3 H1   HT            0.417         1.008       0
   11453 TIP3 3737 TIP3 H2   HT            0.417         1.008       0
   11454 TIP3 3738 TIP3 OH2  OT           -0.834       15.9994       0
   11455 TIP3 3738 TIP3 H1   HT            0.417         1.008       0
   11456 TIP3 3738 TIP3 H2   HT            0.417         1.008       0
   11457 TIP3 3739 TIP3 OH2  OT           -0.834       15.9994       0
   11458 TIP3 3739 TIP3 H1   HT            0.417         1.008       0
   11459 TIP3 3739 TIP3 H2   HT            0.417         1.008       0
   11460 TIP3 3740 TIP3 OH2  OT           -0.834       15.9994       0
   11461 TIP3 3740 TIP3 H1   HT            0.417         1.008       0
   11462 TIP3 3740 TIP3 H2   HT            0.417         1.008       0
   11463 TIP3 3741 TIP3 OH2  OT           -0.834       15.9994       0
   11464 TIP3 3741 TIP3 H1   HT            0.417         1.008       0
   11465 TIP3 3741 TIP3 H2   HT            0.417         1.008       0
   11466 TIP3 3742 TIP3 OH2  OT           -0.834       15.9994       0
   11467 TIP3 3742 TIP3 H1   HT            0.417         1.008       0
   11468 TIP3 3742 TIP3 H2   HT            0.417         1.008       0
   11469 TIP3 3743 TIP3 OH2  OT           -0.834       15.9994       0
   11470 TIP3 3743 TIP3 H1   HT            0.417         1.008       0
   11471 TIP3 3743 TIP3 H2   HT            0.417         1.008       0
   11472 TIP3 3744 TIP3 OH2  OT           -0.834       15.9994       0
   11473 TIP3 3744 TIP3 H1   HT            0.417         1.008       0
   11474 TIP3 3744 TIP3 H2   HT            0.417         1.008       0
   11475 TIP3 3745 TIP3 OH2  OT           -0.834       15.9994       0
   11476 TIP3 3745 TIP3 H1   HT            0.417         1.008       0
   11477 TIP3 3745 TIP3 H2   HT            0.417         1.008       0
   11478 TIP3 3746 TIP3 OH2  OT           -0.834       15.9994       0
   11479 TIP3 3746 TIP3 H1   HT            0.417         1.008       0
   11480 TIP3 3746 TIP3 H2   HT            0.417         1.008       0
   11481 TIP3 3747 TIP3 OH2  OT           -0.834       15.9994       0
   11482 TIP3 3747 TIP3 H1   HT            0.417         1.008       0
   11483 TIP3 3747 TIP3 H2   HT            0.417         1.008       0
   11484 TIP3 3748 TIP3 OH2  OT           -0.834       15.9994       0
   11485 TIP3 3748 TIP3 H1   HT            0.417         1.008       0
   11486 TIP3 3748 TIP3 H2   HT            0.417         1.008       0
   11487 TIP3 3749 TIP3 OH2  OT           -0.834       15.9994       0
   11488 TIP3 3749 TIP3 H1   HT            0.417         1.008       0
   11489 TIP3 3749 TIP3 H2   HT            0.417         1.008       0
   11490 TIP3 3750 TIP3 OH2  OT           -0.834       15.9994       0
   11491 TIP3 3750 TIP3 H1   HT            0.417         1.008       0
   11492 TIP3 3750 TIP3 H2   HT            0.417         1.008       0
   11493 TIP3 3751 TIP3 OH2  OT           -0.834       15.9994       0
   11494 TIP3 3751 TIP3 H1   HT            0.417         1.008       0
   11495 TIP3 3751 TIP3 H2   HT            0.417         1.008       0
   11496 TIP3 3752 TIP3 OH2  OT           -0.834       15.9994       0
   11497 TIP3 3752 TIP3 H1   HT            0.417         1.008       0
   11498 TIP3 3752 TIP3 H2   HT            0.417         1.008       0
   11499 TIP3 3753 TIP3 OH2  OT           -0.834       15.9994       0
   11500 TIP3 3753 TIP3 H1   HT            0.417         1.008       0
   11501 TIP3 3753 TIP3 H2   HT            0.417         1.008       0
   11502 TIP3 3754 TIP3 OH2  OT           -0.834       15.9994       0
   11503 TIP3 3754 TIP3 H1   HT            0.417         1.008       0
   11504 TIP3 3754 TIP3 H2   HT            0.417         1.008       0
   11505 TIP3 3755 TIP3 OH2  OT           -0.834       15.9994       0
   11506 TIP3 3755 TIP3 H1   HT            0.417         1.008       0
   11507 TIP3 3755 TIP3 H2   HT            0.417         1.008       0
   11508 TIP3 3756 TIP3 OH2  OT           -0.834       15.9994       0
   11509 TIP3 3756 TIP3 H1   HT            0.417         1.008       0
   11510 TIP3 3756 TIP3 H2   HT            0.417         1.008       0
   11511 TIP3 3757 TIP3 OH2  OT           -0.834       15.9994       0
   11512 TIP3 3757 TIP3 H1   HT            0.417         1.008       0
   11513 TIP3 3757 TIP3 H2   HT            0.417         1.008       0
   11514 TIP3 3758 TIP3 OH2  OT           -0.834       15.9994       0
   11515 TIP3 3758 TIP3 H1   HT            0.417         1.008       0
   11516 TIP3 3758 TIP3 H2   HT            0.417         1.008       0
   11517 TIP3 3759 TIP3 OH2  OT           -0.834       15.9994       0
   11518 TIP3 3759 TIP3 H1   HT            0.417         1.008       0
   11519 TIP3 3759 TIP3 H2   HT            0.417         1.008       0
   11520 TIP3 3760 TIP3 OH2  OT           -0.834       15.9994       0
   11521 TIP3 3760 TIP3 H1   HT            0.417         1.008       0
   11522 TIP3 3760 TIP3 H2   HT            0.417         1.008       0
   11523 TIP3 3761 TIP3 OH2  OT           -0.834       15.9994       0
   11524 TIP3 3761 TIP3 H1   HT            0.417         1.008       0
   11525 TIP3 3761 TIP3 H2   HT            0.417         1.008       0
   11526 TIP3 3762 TIP3 OH2  OT           -0.834       15.9994       0
   11527 TIP3 3762 TIP3 H1   HT            0.417         1.008       0
   11528 TIP3 3762 TIP3 H2   HT            0.417         1.008       0
   11529 TIP3 3763 TIP3 OH2  OT           -0.834       15.9994       0
   11530 TIP3 3763 TIP3 H1   HT            0.417         1.008       0
   11531 TIP3 3763 TIP3 H2   HT            0.417         1.008       0
   11532 TIP3 3764 TIP3 OH2  OT           -0.834       15.9994       0
   11533 TIP3 3764 TIP3 H1   HT            0.417         1.008       0
   11534 TIP3 3764 TIP3 H2   HT            0.417         1.008       0
   11535 TIP3 3765 TIP3 OH2  OT           -0.834       15.9994       0
   11536 TIP3 3765 TIP3 H1   HT            0.417         1.008       0
   11537 TIP3 3765 TIP3 H2   HT            0.417         1.008       0
   11538 TIP3 3766 TIP3 OH2  OT           -0.834       15.9994       0
   11539 TIP3 3766 TIP3 H1   HT            0.417         1.008       0
   11540 TIP3 3766 TIP3 H2   HT            0.417         1.008       0
   11541 TIP3 3767 TIP3 OH2  OT           -0.834       15.9994       0
   11542 TIP3 3767 TIP3 H1   HT            0.417         1.008       0
   11543 TIP3 3767 TIP3 H2   HT            0.417         1.008       0
   11544 TIP3 3768 TIP3 OH2  OT           -0.834       15.9994       0
   11545 TIP3 3768 TIP3 H1   HT            0.417         1.008       0
   11546 TIP3 3768 TIP3 H2   HT            0.417         1.008       0
   11547 TIP3 3769 TIP3 OH2  OT           -0.834       15.9994       0
   11548 TIP3 3769 TIP3 H1   HT            0.417         1.008       0
   11549 TIP3 3769 TIP3 H2   HT            0.417         1.008       0
   11550 TIP3 3770 TIP3 OH2  OT           -0.834       15.9994       0
   11551 TIP3 3770 TIP3 H1   HT            0.417         1.008       0
   11552 TIP3 3770 TIP3 H2   HT            0.417         1.008       0
   11553 TIP3 3771 TIP3 OH2  OT           -0.834       15.9994       0
   11554 TIP3 3771 TIP3 H1   HT            0.417         1.008       0
   11555 TIP3 3771 TIP3 H2   HT            0.417         1.008       0
   11556 TIP3 3772 TIP3 OH2  OT           -0.834       15.9994       0
   11557 TIP3 3772 TIP3 H1   HT            0.417         1.008       0
   11558 TIP3 3772 TIP3 H2   HT            0.417         1.008       0
   11559 TIP3 3773 TIP3 OH2  OT           -0.834       15.9994       0
   11560 TIP3 3773 TIP3 H1   HT            0.417         1.008       0
   11561 TIP3 3773 TIP3 H2   HT            0.417         1.008       0
   11562 TIP3 3774 TIP3 OH2  OT           -0.834       15.9994       0
   11563 TIP3 3774 TIP3 H1   HT            0.417         1.008       0
   11564 TIP3 3774 TIP3 H2   HT            0.417         1.008       0
   11565 TIP3 3775 TIP3 OH2  OT           -0.834       15.9994       0
   11566 TIP3 3775 TIP3 H1   HT            0.417         1.008       0
   11567 TIP3 3775 TIP3 H2   HT            0.417         1.008       0
   11568 TIP3 3776 TIP3 OH2  OT           -0.834       15.9994       0
   11569 TIP3 3776 TIP3 H1   HT            0.417         1.008       0
   11570 TIP3 3776 TIP3 H2   HT            0.417         1.008       0
   11571 TIP3 3777 TIP3 OH2  OT           -0.834       15.9994       0
   11572 TIP3 3777 TIP3 H1   HT            0.417         1.008       0
   11573 TIP3 3777 TIP3 H2   HT            0.417         1.008       0
   11574 TIP3 3778 TIP3 OH2  OT           -0.834       15.9994       0
   11575 TIP3 3778 TIP3 H1   HT            0.417         1.008       0
   11576 TIP3 3778 TIP3 H2   HT            0.417         1.008       0
   11577 TIP3 3779 TIP3 OH2  OT           -0.834       15.9994       0
   11578 TIP3 3779 TIP3 H1   HT            0.417         1.008       0
   11579 TIP3 3779 TIP3 H2   HT            0.417         1.008       0
   11580 TIP3 3780 TIP3 OH2  OT           -0.834       15.9994       0
   11581 TIP3 3780 TIP3 H1   HT            0.417         1.008       0
   11582 TIP3 3780 TIP3 H2   HT            0.417         1.008       0
   11583 TIP3 3781 TIP3 OH2  OT           -0.834       15.9994       0
   11584 TIP3 3781 TIP3 H1   HT            0.417         1.008       0
   11585 TIP3 3781 TIP3 H2   HT            0.417         1.008       0
   11586 TIP3 3782 TIP3 OH2  OT           -0.834       15.9994       0
   11587 TIP3 3782 TIP3 H1   HT            0.417         1.008       0
   11588 TIP3 3782 TIP3 H2   HT            0.417         1.008       0
   11589 TIP3 3783 TIP3 OH2  OT           -0.834       15.9994       0
   11590 TIP3 3783 TIP3 H1   HT            0.417         1.008       0
   11591 TIP3 3783 TIP3 H2   HT            0.417         1.008       0
   11592 TIP3 3784 TIP3 OH2  OT           -0.834       15.9994       0
   11593 TIP3 3784 TIP3 H1   HT            0.417         1.008       0
   11594 TIP3 3784 TIP3 H2   HT            0.417         1.008       0
   11595 TIP3 3785 TIP3 OH2  OT           -0.834       15.9994       0
   11596 TIP3 3785 TIP3 H1   HT            0.417         1.008       0
   11597 TIP3 3785 TIP3 H2   HT            0.417         1.008       0
   11598 TIP3 3786 TIP3 OH2  OT           -0.834       15.9994       0
   11599 TIP3 3786 TIP3 H1   HT            0.417         1.008       0
   11600 TIP3 3786 TIP3 H2   HT            0.417         1.008       0
   11601 TIP3 3787 TIP3 OH2  OT           -0.834       15.9994       0
   11602 TIP3 3787 TIP3 H1   HT            0.417         1.008       0
   11603 TIP3 3787 TIP3 H2   HT            0.417         1.008       0
   11604 TIP3 3788 TIP3 OH2  OT           -0.834       15.9994       0
   11605 TIP3 3788 TIP3 H1   HT            0.417         1.008       0
   11606 TIP3 3788 TIP3 H2   HT            0.417         1.008       0
   11607 TIP3 3789 TIP3 OH2  OT           -0.834       15.9994       0
   11608 TIP3 3789 TIP3 H1   HT            0.417         1.008       0
   11609 TIP3 3789 TIP3 H2   HT            0.417         1.008       0
   11610 TIP3 3790 TIP3 OH2  OT           -0.834       15.9994       0
   11611 TIP3 3790 TIP3 H1   HT            0.417         1.008       0
   11612 TIP3 3790 TIP3 H2   HT            0.417         1.008       0
   11613 TIP3 3791 TIP3 OH2  OT           -0.834       15.9994       0
   11614 TIP3 3791 TIP3 H1   HT            0.417         1.008       0
   11615 TIP3 3791 TIP3 H2   HT            0.417         1.008       0
   11616 TIP3 3792 TIP3 OH2  OT           -0.834       15.9994       0
   11617 TIP3 3792 TIP3 H1   HT            0.417         1.008       0
   11618 TIP3 3792 TIP3 H2   HT            0.417         1.008       0
   11619 TIP3 3793 TIP3 OH2  OT           -0.834       15.9994       0
   11620 TIP3 3793 TIP3 H1   HT            0.417         1.008       0
   11621 TIP3 3793 TIP3 H2   HT            0.417         1.008       0
   11622 TIP3 3794 TIP3 OH2  OT           -0.834       15.9994       0
   11623 TIP3 3794 TIP3 H1   HT            0.417         1.008       0
   11624 TIP3 3794 TIP3 H2   HT            0.417         1.008       0
   11625 TIP3 3795 TIP3 OH2  OT           -0.834       15.9994       0
   11626 TIP3 3795 TIP3 H1   HT            0.417         1.008       0
   11627 TIP3 3795 TIP3 H2   HT            0.417         1.008       0
   11628 TIP3 3796 TIP3 OH2  OT           -0.834       15.9994       0
   11629 TIP3 3796 TIP3 H1   HT            0.417         1.008       0
   11630 TIP3 3796 TIP3 H2   HT            0.417         1.008       0
   11631 TIP3 3797 TIP3 OH2  OT           -0.834       15.9994       0
   11632 TIP3 3797 TIP3 H1   HT            0.417         1.008       0
   11633 TIP3 3797 TIP3 H2   HT            0.417         1.008       0
   11634 TIP3 3798 TIP3 OH2  OT           -0.834       15.9994       0
   11635 TIP3 3798 TIP3 H1   HT            0.417         1.008       0
   11636 TIP3 3798 TIP3 H2   HT            0.417         1.008       0
   11637 TIP3 3799 TIP3 OH2  OT           -0.834       15.9994       0
   11638 TIP3 3799 TIP3 H1   HT            0.417         1.008       0
   11639 TIP3 3799 TIP3 H2   HT            0.417         1.008       0
   11640 TIP3 3800 TIP3 OH2  OT           -0.834       15.9994       0
   11641 TIP3 3800 TIP3 H1   HT            0.417         1.008       0
   11642 TIP3 3800 TIP3 H2   HT            0.417         1.008       0
   11643 TIP3 3801 TIP3 OH2  OT           -0.834       15.9994       0
   11644 TIP3 3801 TIP3 H1   HT            0.417         1.008       0
   11645 TIP3 3801 TIP3 H2   HT            0.417         1.008       0
   11646 TIP3 3802 TIP3 OH2  OT           -0.834       15.9994       0
   11647 TIP3 3802 TIP3 H1   HT            0.417         1.008       0
   11648 TIP3 3802 TIP3 H2   HT            0.417         1.008       0
   11649 TIP3 3803 TIP3 OH2  OT           -0.834       15.9994       0
   11650 TIP3 3803 TIP3 H1   HT            0.417         1.008       0
   11651 TIP3 3803 TIP3 H2   HT            0.417         1.008       0
   11652 TIP3 3804 TIP3 OH2  OT           -0.834       15.9994       0
   11653 TIP3 3804 TIP3 H1   HT            0.417         1.008       0
   11654 TIP3 3804 TIP3 H2   HT            0.417         1.008       0
   11655 TIP3 3805 TIP3 OH2  OT           -0.834       15.9994       0
   11656 TIP3 3805 TIP3 H1   HT            0.417         1.008       0
   11657 TIP3 3805 TIP3 H2   HT            0.417         1.008       0
   11658 TIP3 3806 TIP3 OH2  OT           -0.834       15.9994       0
   11659 TIP3 3806 TIP3 H1   HT            0.417         1.008       0
   11660 TIP3 3806 TIP3 H2   HT            0.417         1.008       0
   11661 TIP3 3807 TIP3 OH2  OT           -0.834       15.9994       0
   11662 TIP3 3807 TIP3 H1   HT            0.417         1.008       0
   11663 TIP3 3807 TIP3 H2   HT            0.417         1.008       0
   11664 TIP3 3808 TIP3 OH2  OT           -0.834       15.9994       0
   11665 TIP3 3808 TIP3 H1   HT            0.417         1.008       0
   11666 TIP3 3808 TIP3 H2   HT            0.417         1.008       0
   11667 TIP3 3809 TIP3 OH2  OT           -0.834       15.9994       0
   11668 TIP3 3809 TIP3 H1   HT            0.417         1.008       0
   11669 TIP3 3809 TIP3 H2   HT            0.417         1.008       0
   11670 TIP3 3810 TIP3 OH2  OT           -0.834       15.9994       0
   11671 TIP3 3810 TIP3 H1   HT            0.417         1.008       0
   11672 TIP3 3810 TIP3 H2   HT            0.417         1.008       0
   11673 TIP3 3811 TIP3 OH2  OT           -0.834       15.9994       0
   11674 TIP3 3811 TIP3 H1   HT            0.417         1.008       0
   11675 TIP3 3811 TIP3 H2   HT            0.417         1.008       0
   11676 TIP3 3812 TIP3 OH2  OT           -0.834       15.9994       0
   11677 TIP3 3812 TIP3 H1   HT            0.417         1.008       0
   11678 TIP3 3812 TIP3 H2   HT            0.417         1.008       0
   11679 TIP3 3813 TIP3 OH2  OT           -0.834       15.9994       0
   11680 TIP3 3813 TIP3 H1   HT            0.417         1.008       0
   11681 TIP3 3813 TIP3 H2   HT            0.417         1.008       0
   11682 TIP3 3814 TIP3 OH2  OT           -0.834       15.9994       0
   11683 TIP3 3814 TIP3 H1   HT            0.417         1.008       0
   11684 TIP3 3814 TIP3 H2   HT            0.417         1.008       0
   11685 TIP3 3815 TIP3 OH2  OT           -0.834       15.9994       0
   11686 TIP3 3815 TIP3 H1   HT            0.417         1.008       0
   11687 TIP3 3815 TIP3 H2   HT            0.417         1.008       0
   11688 TIP3 3816 TIP3 OH2  OT           -0.834       15.9994       0
   11689 TIP3 3816 TIP3 H1   HT            0.417         1.008       0
   11690 TIP3 3816 TIP3 H2   HT            0.417         1.008       0
   11691 TIP3 3817 TIP3 OH2  OT           -0.834       15.9994       0
   11692 TIP3 3817 TIP3 H1   HT            0.417         1.008       0
   11693 TIP3 3817 TIP3 H2   HT            0.417         1.008       0
   11694 TIP3 3818 TIP3 OH2  OT           -0.834       15.9994       0
   11695 TIP3 3818 TIP3 H1   HT            0.417         1.008       0
   11696 TIP3 3818 TIP3 H2   HT            0.417         1.008       0
   11697 TIP3 3819 TIP3 OH2  OT           -0.834       15.9994       0
   11698 TIP3 3819 TIP3 H1   HT            0.417         1.008       0
   11699 TIP3 3819 TIP3 H2   HT            0.417         1.008       0
   11700 TIP3 3820 TIP3 OH2  OT           -0.834       15.9994       0
   11701 TIP3 3820 TIP3 H1   HT            0.417         1.008       0
   11702 TIP3 3820 TIP3 H2   HT            0.417         1.008       0
   11703 TIP3 3821 TIP3 OH2  OT           -0.834       15.9994       0
   11704 TIP3 3821 TIP3 H1   HT            0.417         1.008       0
   11705 TIP3 3821 TIP3 H2   HT            0.417         1.008       0
   11706 TIP3 3822 TIP3 OH2  OT           -0.834       15.9994       0
   11707 TIP3 3822 TIP3 H1   HT            0.417         1.008       0
   11708 TIP3 3822 TIP3 H2   HT            0.417         1.008       0
   11709 TIP3 3823 TIP3 OH2  OT           -0.834       15.9994       0
   11710 TIP3 3823 TIP3 H1   HT            0.417         1.008       0
   11711 TIP3 3823 TIP3 H2   HT            0.417         1.008       0
   11712 TIP3 3824 TIP3 OH2  OT           -0.834       15.9994       0
   11713 TIP3 3824 TIP3 H1   HT            0.417         1.008       0
   11714 TIP3 3824 TIP3 H2   HT            0.417         1.008       0
   11715 TIP3 3825 TIP3 OH2  OT           -0.834       15.9994       0
   11716 TIP3 3825 TIP3 H1   HT            0.417         1.008       0
   11717 TIP3 3825 TIP3 H2   HT            0.417         1.008       0
   11718 TIP3 3826 TIP3 OH2  OT           -0.834       15.9994       0
   11719 TIP3 3826 TIP3 H1   HT            0.417         1.008       0
   11720 TIP3 3826 TIP3 H2   HT            0.417         1.008       0
   11721 TIP3 3827 TIP3 OH2  OT           -0.834       15.9994       0
   11722 TIP3 3827 TIP3 H1   HT            0.417         1.008       0
   11723 TIP3 3827 TIP3 H2   HT            0.417         1.008       0
   11724 TIP3 3828 TIP3 OH2  OT           -0.834       15.9994       0
   11725 TIP3 3828 TIP3 H1   HT            0.417         1.008       0
   11726 TIP3 3828 TIP3 H2   HT            0.417         1.008       0
   11727 TIP3 3829 TIP3 OH2  OT           -0.834       15.9994       0
   11728 TIP3 3829 TIP3 H1   HT            0.417         1.008       0
   11729 TIP3 3829 TIP3 H2   HT            0.417         1.008       0
   11730 TIP3 3830 TIP3 OH2  OT           -0.834       15.9994       0
   11731 TIP3 3830 TIP3 H1   HT            0.417         1.008       0
   11732 TIP3 3830 TIP3 H2   HT            0.417         1.008       0
   11733 TIP3 3831 TIP3 OH2  OT           -0.834       15.9994       0
   11734 TIP3 3831 TIP3 H1   HT            0.417         1.008       0
   11735 TIP3 3831 TIP3 H2   HT            0.417         1.008       0
   11736 TIP3 3832 TIP3 OH2  OT           -0.834       15.9994       0
   11737 TIP3 3832 TIP3 H1   HT            0.417         1.008       0
   11738 TIP3 3832 TIP3 H2   HT            0.417         1.008       0
   11739 TIP3 3833 TIP3 OH2  OT           -0.834       15.9994       0
   11740 TIP3 3833 TIP3 H1   HT            0.417         1.008       0
   11741 TIP3 3833 TIP3 H2   HT            0.417         1.008       0
   11742 TIP3 3834 TIP3 OH2  OT           -0.834       15.9994       0
   11743 TIP3 3834 TIP3 H1   HT            0.417         1.008       0
   11744 TIP3 3834 TIP3 H2   HT            0.417         1.008       0
   11745 TIP3 3835 TIP3 OH2  OT           -0.834       15.9994       0
   11746 TIP3 3835 TIP3 H1   HT            0.417         1.008       0
   11747 TIP3 3835 TIP3 H2   HT            0.417         1.008       0
   11748 TIP3 3836 TIP3 OH2  OT           -0.834       15.9994       0
   11749 TIP3 3836 TIP3 H1   HT            0.417         1.008       0
   11750 TIP3 3836 TIP3 H2   HT            0.417         1.008       0
   11751 TIP3 3837 TIP3 OH2  OT           -0.834       15.9994       0
   11752 TIP3 3837 TIP3 H1   HT            0.417         1.008       0
   11753 TIP3 3837 TIP3 H2   HT            0.417         1.008       0
   11754 TIP3 3838 TIP3 OH2  OT           -0.834       15.9994       0
   11755 TIP3 3838 TIP3 H1   HT            0.417         1.008       0
   11756 TIP3 3838 TIP3 H2   HT            0.417         1.008       0
   11757 TIP3 3839 TIP3 OH2  OT           -0.834       15.9994       0
   11758 TIP3 3839 TIP3 H1   HT            0.417         1.008       0
   11759 TIP3 3839 TIP3 H2   HT            0.417         1.008       0
   11760 TIP3 3840 TIP3 OH2  OT           -0.834       15.9994       0
   11761 TIP3 3840 TIP3 H1   HT            0.417         1.008       0
   11762 TIP3 3840 TIP3 H2   HT            0.417         1.008       0
   11763 TIP3 3841 TIP3 OH2  OT           -0.834       15.9994       0
   11764 TIP3 3841 TIP3 H1   HT            0.417         1.008       0
   11765 TIP3 3841 TIP3 H2   HT            0.417         1.008       0
   11766 TIP3 3842 TIP3 OH2  OT           -0.834       15.9994       0
   11767 TIP3 3842 TIP3 H1   HT            0.417         1.008       0
   11768 TIP3 3842 TIP3 H2   HT            0.417         1.008       0
   11769 TIP3 3843 TIP3 OH2  OT           -0.834       15.9994       0
   11770 TIP3 3843 TIP3 H1   HT            0.417         1.008       0
   11771 TIP3 3843 TIP3 H2   HT            0.417         1.008       0
   11772 TIP3 3844 TIP3 OH2  OT           -0.834       15.9994       0
   11773 TIP3 3844 TIP3 H1   HT            0.417         1.008       0
   11774 TIP3 3844 TIP3 H2   HT            0.417         1.008       0
   11775 TIP3 3845 TIP3 OH2  OT           -0.834       15.9994       0
   11776 TIP3 3845 TIP3 H1   HT            0.417         1.008       0
   11777 TIP3 3845 TIP3 H2   HT            0.417         1.008       0
   11778 TIP3 3846 TIP3 OH2  OT           -0.834       15.9994       0
   11779 TIP3 3846 TIP3 H1   HT            0.417         1.008       0
   11780 TIP3 3846 TIP3 H2   HT            0.417         1.008       0
   11781 TIP3 3847 TIP3 OH2  OT           -0.834       15.9994       0
   11782 TIP3 3847 TIP3 H1   HT            0.417         1.008       0
   11783 TIP3 3847 TIP3 H2   HT            0.417         1.008       0
   11784 TIP3 3848 TIP3 OH2  OT           -0.834       15.9994       0
   11785 TIP3 3848 TIP3 H1   HT            0.417         1.008       0
   11786 TIP3 3848 TIP3 H2   HT            0.417         1.008       0
   11787 TIP3 3849 TIP3 OH2  OT           -0.834       15.9994       0
   11788 TIP3 3849 TIP3 H1   HT            0.417         1.008       0
   11789 TIP3 3849 TIP3 H2   HT            0.417         1.008       0
   11790 TIP3 3850 TIP3 OH2  OT           -0.834       15.9994       0
   11791 TIP3 3850 TIP3 H1   HT            0.417         1.008       0
   11792 TIP3 3850 TIP3 H2   HT            0.417         1.008       0
   11793 TIP3 3851 TIP3 OH2  OT           -0.834       15.9994       0
   11794 TIP3 3851 TIP3 H1   HT            0.417         1.008       0
   11795 TIP3 3851 TIP3 H2   HT            0.417         1.008       0
   11796 TIP3 3852 TIP3 OH2  OT           -0.834       15.9994       0
   11797 TIP3 3852 TIP3 H1   HT            0.417         1.008       0
   11798 TIP3 3852 TIP3 H2   HT            0.417         1.008       0
   11799 TIP3 3853 TIP3 OH2  OT           -0.834       15.9994       0
   11800 TIP3 3853 TIP3 H1   HT            0.417         1.008       0
   11801 TIP3 3853 TIP3 H2   HT            0.417         1.008       0
   11802 TIP3 3854 TIP3 OH2  OT           -0.834       15.9994       0
   11803 TIP3 3854 TIP3 H1   HT            0.417         1.008       0
   11804 TIP3 3854 TIP3 H2   HT            0.417         1.008       0
   11805 TIP3 3855 TIP3 OH2  OT           -0.834       15.9994       0
   11806 TIP3 3855 TIP3 H1   HT            0.417         1.008       0
   11807 TIP3 3855 TIP3 H2   HT            0.417         1.008       0
   11808 TIP3 3856 TIP3 OH2  OT           -0.834       15.9994       0
   11809 TIP3 3856 TIP3 H1   HT            0.417         1.008       0
   11810 TIP3 3856 TIP3 H2   HT            0.417         1.008       0
   11811 TIP3 3857 TIP3 OH2  OT           -0.834       15.9994       0
   11812 TIP3 3857 TIP3 H1   HT            0.417         1.008       0
   11813 TIP3 3857 TIP3 H2   HT            0.417         1.008       0
   11814 TIP3 3858 TIP3 OH2  OT           -0.834       15.9994       0
   11815 TIP3 3858 TIP3 H1   HT            0.417         1.008       0
   11816 TIP3 3858 TIP3 H2   HT            0.417         1.008       0
   11817 TIP3 3859 TIP3 OH2  OT           -0.834       15.9994       0
   11818 TIP3 3859 TIP3 H1   HT            0.417         1.008       0
   11819 TIP3 3859 TIP3 H2   HT            0.417         1.008       0
   11820 TIP3 3860 TIP3 OH2  OT           -0.834       15.9994       0
   11821 TIP3 3860 TIP3 H1   HT            0.417         1.008       0
   11822 TIP3 3860 TIP3 H2   HT            0.417         1.008       0
   11823 TIP3 3861 TIP3 OH2  OT           -0.834       15.9994       0
   11824 TIP3 3861 TIP3 H1   HT            0.417         1.008       0
   11825 TIP3 3861 TIP3 H2   HT            0.417         1.008       0
   11826 TIP3 3862 TIP3 OH2  OT           -0.834       15.9994       0
   11827 TIP3 3862 TIP3 H1   HT            0.417         1.008       0
   11828 TIP3 3862 TIP3 H2   HT            0.417         1.008       0
   11829 TIP3 3863 TIP3 OH2  OT           -0.834       15.9994       0
   11830 TIP3 3863 TIP3 H1   HT            0.417         1.008       0
   11831 TIP3 3863 TIP3 H2   HT            0.417         1.008       0
   11832 TIP3 3864 TIP3 OH2  OT           -0.834       15.9994       0
   11833 TIP3 3864 TIP3 H1   HT            0.417         1.008       0
   11834 TIP3 3864 TIP3 H2   HT            0.417         1.008       0
   11835 TIP3 3865 TIP3 OH2  OT           -0.834       15.9994       0
   11836 TIP3 3865 TIP3 H1   HT            0.417         1.008       0
   11837 TIP3 3865 TIP3 H2   HT            0.417         1.008       0
   11838 TIP3 3866 TIP3 OH2  OT           -0.834       15.9994       0
   11839 TIP3 3866 TIP3 H1   HT            0.417         1.008       0
   11840 TIP3 3866 TIP3 H2   HT            0.417         1.008       0
   11841 TIP3 3867 TIP3 OH2  OT           -0.834       15.9994       0
   11842 TIP3 3867 TIP3 H1   HT            0.417         1.008       0
   11843 TIP3 3867 TIP3 H2   HT            0.417         1.008       0
   11844 TIP3 3868 TIP3 OH2  OT           -0.834       15.9994       0
   11845 TIP3 3868 TIP3 H1   HT            0.417         1.008       0
   11846 TIP3 3868 TIP3 H2   HT            0.417         1.008       0
   11847 TIP3 3869 TIP3 OH2  OT           -0.834       15.9994       0
   11848 TIP3 3869 TIP3 H1   HT            0.417         1.008       0
   11849 TIP3 3869 TIP3 H2   HT            0.417         1.008       0
   11850 TIP3 3870 TIP3 OH2  OT           -0.834       15.9994       0
   11851 TIP3 3870 TIP3 H1   HT            0.417         1.008       0
   11852 TIP3 3870 TIP3 H2   HT            0.417         1.008       0
   11853 TIP3 3871 TIP3 OH2  OT           -0.834       15.9994       0
   11854 TIP3 3871 TIP3 H1   HT            0.417         1.008       0
   11855 TIP3 3871 TIP3 H2   HT            0.417         1.008       0
   11856 TIP3 3872 TIP3 OH2  OT           -0.834       15.9994       0
   11857 TIP3 3872 TIP3 H1   HT            0.417         1.008       0
   11858 TIP3 3872 TIP3 H2   HT            0.417         1.008       0
   11859 TIP3 3873 TIP3 OH2  OT           -0.834       15.9994       0
   11860 TIP3 3873 TIP3 H1   HT            0.417         1.008       0
   11861 TIP3 3873 TIP3 H2   HT            0.417         1.008       0
   11862 TIP3 3874 TIP3 OH2  OT           -0.834       15.9994       0
   11863 TIP3 3874 TIP3 H1   HT            0.417         1.008       0
   11864 TIP3 3874 TIP3 H2   HT            0.417         1.008       0
   11865 TIP3 3875 TIP3 OH2  OT           -0.834       15.9994       0
   11866 TIP3 3875 TIP3 H1   HT            0.417         1.008       0
   11867 TIP3 3875 TIP3 H2   HT            0.417         1.008       0
   11868 TIP3 3876 TIP3 OH2  OT           -0.834       15.9994       0
   11869 TIP3 3876 TIP3 H1   HT            0.417         1.008       0
   11870 TIP3 3876 TIP3 H2   HT            0.417         1.008       0
   11871 TIP3 3877 TIP3 OH2  OT           -0.834       15.9994       0
   11872 TIP3 3877 TIP3 H1   HT            0.417         1.008       0
   11873 TIP3 3877 TIP3 H2   HT            0.417         1.008       0
   11874 TIP3 3878 TIP3 OH2  OT           -0.834       15.9994       0
   11875 TIP3 3878 TIP3 H1   HT            0.417         1.008       0
   11876 TIP3 3878 TIP3 H2   HT            0.417         1.008       0
   11877 TIP3 3879 TIP3 OH2  OT           -0.834       15.9994       0
   11878 TIP3 3879 TIP3 H1   HT            0.417         1.008       0
   11879 TIP3 3879 TIP3 H2   HT            0.417         1.008       0
   11880 TIP3 3880 TIP3 OH2  OT           -0.834       15.9994       0
   11881 TIP3 3880 TIP3 H1   HT            0.417         1.008       0
   11882 TIP3 3880 TIP3 H2   HT            0.417         1.008       0
   11883 TIP3 3881 TIP3 OH2  OT           -0.834       15.9994       0
   11884 TIP3 3881 TIP3 H1   HT            0.417         1.008       0
   11885 TIP3 3881 TIP3 H2   HT            0.417         1.008       0
   11886 TIP3 3882 TIP3 OH2  OT           -0.834       15.9994       0
   11887 TIP3 3882 TIP3 H1   HT            0.417         1.008       0
   11888 TIP3 3882 TIP3 H2   HT            0.417         1.008       0
   11889 TIP3 3883 TIP3 OH2  OT           -0.834       15.9994       0
   11890 TIP3 3883 TIP3 H1   HT            0.417         1.008       0
   11891 TIP3 3883 TIP3 H2   HT            0.417         1.008       0
   11892 TIP3 3884 TIP3 OH2  OT           -0.834       15.9994       0
   11893 TIP3 3884 TIP3 H1   HT            0.417         1.008       0
   11894 TIP3 3884 TIP3 H2   HT            0.417         1.008       0
   11895 TIP3 3885 TIP3 OH2  OT           -0.834       15.9994       0
   11896 TIP3 3885 TIP3 H1   HT            0.417         1.008       0
   11897 TIP3 3885 TIP3 H2   HT            0.417         1.008       0
   11898 TIP3 3886 TIP3 OH2  OT           -0.834       15.9994       0
   11899 TIP3 3886 TIP3 H1   HT            0.417         1.008       0
   11900 TIP3 3886 TIP3 H2   HT            0.417         1.008       0
   11901 TIP3 3887 TIP3 OH2  OT           -0.834       15.9994       0
   11902 TIP3 3887 TIP3 H1   HT            0.417         1.008       0
   11903 TIP3 3887 TIP3 H2   HT            0.417         1.008       0
   11904 TIP3 3888 TIP3 OH2  OT           -0.834       15.9994       0
   11905 TIP3 3888 TIP3 H1   HT            0.417         1.008       0
   11906 TIP3 3888 TIP3 H2   HT            0.417         1.008       0
   11907 TIP3 3889 TIP3 OH2  OT           -0.834       15.9994       0
   11908 TIP3 3889 TIP3 H1   HT            0.417         1.008       0
   11909 TIP3 3889 TIP3 H2   HT            0.417         1.008       0
   11910 TIP3 3890 TIP3 OH2  OT           -0.834       15.9994       0
   11911 TIP3 3890 TIP3 H1   HT            0.417         1.008       0
   11912 TIP3 3890 TIP3 H2   HT            0.417         1.008       0
   11913 TIP3 3891 TIP3 OH2  OT           -0.834       15.9994       0
   11914 TIP3 3891 TIP3 H1   HT            0.417         1.008       0
   11915 TIP3 3891 TIP3 H2   HT            0.417         1.008       0
   11916 TIP3 3892 TIP3 OH2  OT           -0.834       15.9994       0
   11917 TIP3 3892 TIP3 H1   HT            0.417         1.008       0
   11918 TIP3 3892 TIP3 H2   HT            0.417         1.008       0
   11919 TIP3 3893 TIP3 OH2  OT           -0.834       15.9994       0
   11920 TIP3 3893 TIP3 H1   HT            0.417         1.008       0
   11921 TIP3 3893 TIP3 H2   HT            0.417         1.008       0
   11922 TIP3 3894 TIP3 OH2  OT           -0.834       15.9994       0
   11923 TIP3 3894 TIP3 H1   HT            0.417         1.008       0
   11924 TIP3 3894 TIP3 H2   HT            0.417         1.008       0
   11925 TIP3 3895 TIP3 OH2  OT           -0.834       15.9994       0
   11926 TIP3 3895 TIP3 H1   HT            0.417         1.008       0
   11927 TIP3 3895 TIP3 H2   HT            0.417         1.008       0
   11928 TIP3 3896 TIP3 OH2  OT           -0.834       15.9994       0
   11929 TIP3 3896 TIP3 H1   HT            0.417         1.008       0
   11930 TIP3 3896 TIP3 H2   HT            0.417         1.008       0
   11931 TIP3 3897 TIP3 OH2  OT           -0.834       15.9994       0
   11932 TIP3 3897 TIP3 H1   HT            0.417         1.008       0
   11933 TIP3 3897 TIP3 H2   HT            0.417         1.008       0
   11934 TIP3 3898 TIP3 OH2  OT           -0.834       15.9994       0
   11935 TIP3 3898 TIP3 H1   HT            0.417         1.008       0
   11936 TIP3 3898 TIP3 H2   HT            0.417         1.008       0
   11937 TIP3 3899 TIP3 OH2  OT           -0.834       15.9994       0
   11938 TIP3 3899 TIP3 H1   HT            0.417         1.008       0
   11939 TIP3 3899 TIP3 H2   HT            0.417         1.008       0
   11940 TIP3 3900 TIP3 OH2  OT           -0.834       15.9994       0
   11941 TIP3 3900 TIP3 H1   HT            0.417         1.008       0
   11942 TIP3 3900 TIP3 H2   HT            0.417         1.008       0
   11943 TIP3 3901 TIP3 OH2  OT           -0.834       15.9994       0
   11944 TIP3 3901 TIP3 H1   HT            0.417         1.008       0
   11945 TIP3 3901 TIP3 H2   HT            0.417         1.008       0
   11946 TIP3 3902 TIP3 OH2  OT           -0.834       15.9994       0
   11947 TIP3 3902 TIP3 H1   HT            0.417         1.008       0
   11948 TIP3 3902 TIP3 H2   HT            0.417         1.008       0
   11949 TIP3 3903 TIP3 OH2  OT           -0.834       15.9994       0
   11950 TIP3 3903 TIP3 H1   HT            0.417         1.008       0
   11951 TIP3 3903 TIP3 H2   HT            0.417         1.008       0
   11952 TIP3 3904 TIP3 OH2  OT           -0.834       15.9994       0
   11953 TIP3 3904 TIP3 H1   HT            0.417         1.008       0
   11954 TIP3 3904 TIP3 H2   HT            0.417         1.008       0
   11955 TIP3 3905 TIP3 OH2  OT           -0.834       15.9994       0
   11956 TIP3 3905 TIP3 H1   HT            0.417         1.008       0
   11957 TIP3 3905 TIP3 H2   HT            0.417         1.008       0
   11958 TIP3 3906 TIP3 OH2  OT           -0.834       15.9994       0
   11959 TIP3 3906 TIP3 H1   HT            0.417         1.008       0
   11960 TIP3 3906 TIP3 H2   HT            0.417         1.008       0
   11961 TIP3 3907 TIP3 OH2  OT           -0.834       15.9994       0
   11962 TIP3 3907 TIP3 H1   HT            0.417         1.008       0
   11963 TIP3 3907 TIP3 H2   HT            0.417         1.008       0
   11964 TIP3 3908 TIP3 OH2  OT           -0.834       15.9994       0
   11965 TIP3 3908 TIP3 H1   HT            0.417         1.008       0
   11966 TIP3 3908 TIP3 H2   HT            0.417         1.008       0
   11967 TIP3 3909 TIP3 OH2  OT           -0.834       15.9994       0
   11968 TIP3 3909 TIP3 H1   HT            0.417         1.008       0
   11969 TIP3 3909 TIP3 H2   HT            0.417         1.008       0
   11970 TIP3 3910 TIP3 OH2  OT           -0.834       15.9994       0
   11971 TIP3 3910 TIP3 H1   HT            0.417         1.008       0
   11972 TIP3 3910 TIP3 H2   HT            0.417         1.008       0
   11973 TIP3 3911 TIP3 OH2  OT           -0.834       15.9994       0
   11974 TIP3 3911 TIP3 H1   HT            0.417         1.008       0
   11975 TIP3 3911 TIP3 H2   HT            0.417         1.008       0
   11976 TIP3 3912 TIP3 OH2  OT           -0.834       15.9994       0
   11977 TIP3 3912 TIP3 H1   HT            0.417         1.008       0
   11978 TIP3 3912 TIP3 H2   HT            0.417         1.008       0
   11979 TIP3 3913 TIP3 OH2  OT           -0.834       15.9994       0
   11980 TIP3 3913 TIP3 H1   HT            0.417         1.008       0
   11981 TIP3 3913 TIP3 H2   HT            0.417         1.008       0
   11982 TIP3 3914 TIP3 OH2  OT           -0.834       15.9994       0
   11983 TIP3 3914 TIP3 H1   HT            0.417         1.008       0
   11984 TIP3 3914 TIP3 H2   HT            0.417         1.008       0
   11985 TIP3 3915 TIP3 OH2  OT           -0.834       15.9994       0
   11986 TIP3 3915 TIP3 H1   HT            0.417         1.008       0
   11987 TIP3 3915 TIP3 H2   HT            0.417         1.008       0
   11988 TIP3 3916 TIP3 OH2  OT           -0.834       15.9994       0
   11989 TIP3 3916 TIP3 H1   HT            0.417         1.008       0
   11990 TIP3 3916 TIP3 H2   HT            0.417         1.008       0
   11991 TIP3 3917 TIP3 OH2  OT           -0.834       15.9994       0
   11992 TIP3 3917 TIP3 H1   HT            0.417         1.008       0
   11993 TIP3 3917 TIP3 H2   HT            0.417         1.008       0
   11994 TIP3 3918 TIP3 OH2  OT           -0.834       15.9994       0
   11995 TIP3 3918 TIP3 H1   HT            0.417         1.008       0
   11996 TIP3 3918 TIP3 H2   HT            0.417         1.008       0
   11997 TIP3 3919 TIP3 OH2  OT           -0.834       15.9994       0
   11998 TIP3 3919 TIP3 H1   HT            0.417         1.008       0
   11999 TIP3 3919 TIP3 H2   HT            0.417         1.008       0
   12000 TIP3 3920 TIP3 OH2  OT           -0.834       15.9994       0
   12001 TIP3 3920 TIP3 H1   HT            0.417         1.008       0
   12002 TIP3 3920 TIP3 H2   HT            0.417         1.008       0
   12003 TIP3 3921 TIP3 OH2  OT           -0.834       15.9994       0
   12004 TIP3 3921 TIP3 H1   HT            0.417         1.008       0
   12005 TIP3 3921 TIP3 H2   HT            0.417         1.008       0
   12006 TIP3 3922 TIP3 OH2  OT           -0.834       15.9994       0
   12007 TIP3 3922 TIP3 H1   HT            0.417         1.008       0
   12008 TIP3 3922 TIP3 H2   HT            0.417         1.008       0
   12009 TIP3 3923 TIP3 OH2  OT           -0.834       15.9994       0
   12010 TIP3 3923 TIP3 H1   HT            0.417         1.008       0
   12011 TIP3 3923 TIP3 H2   HT            0.417         1.008       0
   12012 TIP3 3924 TIP3 OH2  OT           -0.834       15.9994       0
   12013 TIP3 3924 TIP3 H1   HT            0.417         1.008       0
   12014 TIP3 3924 TIP3 H2   HT            0.417         1.008       0
   12015 TIP3 3925 TIP3 OH2  OT           -0.834       15.9994       0
   12016 TIP3 3925 TIP3 H1   HT            0.417         1.008       0
   12017 TIP3 3925 TIP3 H2   HT            0.417         1.008       0
   12018 TIP3 3926 TIP3 OH2  OT           -0.834       15.9994       0
   12019 TIP3 3926 TIP3 H1   HT            0.417         1.008       0
   12020 TIP3 3926 TIP3 H2   HT            0.417         1.008       0
   12021 TIP3 3927 TIP3 OH2  OT           -0.834       15.9994       0
   12022 TIP3 3927 TIP3 H1   HT            0.417         1.008       0
   12023 TIP3 3927 TIP3 H2   HT            0.417         1.008       0
   12024 TIP3 3928 TIP3 OH2  OT           -0.834       15.9994       0
   12025 TIP3 3928 TIP3 H1   HT            0.417         1.008       0
   12026 TIP3 3928 TIP3 H2   HT            0.417         1.008       0
   12027 TIP3 3929 TIP3 OH2  OT           -0.834       15.9994       0
   12028 TIP3 3929 TIP3 H1   HT            0.417         1.008       0
   12029 TIP3 3929 TIP3 H2   HT            0.417         1.008       0
   12030 TIP3 3930 TIP3 OH2  OT           -0.834       15.9994       0
   12031 TIP3 3930 TIP3 H1   HT            0.417         1.008       0
   12032 TIP3 3930 TIP3 H2   HT            0.417         1.008       0
   12033 TIP3 3931 TIP3 OH2  OT           -0.834       15.9994       0
   12034 TIP3 3931 TIP3 H1   HT            0.417         1.008       0
   12035 TIP3 3931 TIP3 H2   HT            0.417         1.008       0
   12036 TIP3 3932 TIP3 OH2  OT           -0.834       15.9994       0
   12037 TIP3 3932 TIP3 H1   HT            0.417         1.008       0
   12038 TIP3 3932 TIP3 H2   HT            0.417         1.008       0
   12039 TIP3 3933 TIP3 OH2  OT           -0.834       15.9994       0
   12040 TIP3 3933 TIP3 H1   HT            0.417         1.008       0
   12041 TIP3 3933 TIP3 H2   HT            0.417         1.008       0
   12042 TIP3 3934 TIP3 OH2  OT           -0.834       15.9994       0
   12043 TIP3 3934 TIP3 H1   HT            0.417         1.008       0
   12044 TIP3 3934 TIP3 H2   HT            0.417         1.008       0
   12045 TIP3 3935 TIP3 OH2  OT           -0.834       15.9994       0
   12046 TIP3 3935 TIP3 H1   HT            0.417         1.008       0
   12047 TIP3 3935 TIP3 H2   HT            0.417         1.008       0
   12048 TIP3 3936 TIP3 OH2  OT           -0.834       15.9994       0
   12049 TIP3 3936 TIP3 H1   HT            0.417         1.008       0
   12050 TIP3 3936 TIP3 H2   HT            0.417         1.008       0
   12051 TIP3 3937 TIP3 OH2  OT           -0.834       15.9994       0
   12052 TIP3 3937 TIP3 H1   HT            0.417         1.008       0
   12053 TIP3 3937 TIP3 H2   HT            0.417         1.008       0
   12054 TIP3 3938 TIP3 OH2  OT           -0.834       15.9994       0
   12055 TIP3 3938 TIP3 H1   HT            0.417         1.008       0
   12056 TIP3 3938 TIP3 H2   HT            0.417         1.008       0
   12057 TIP3 3939 TIP3 OH2  OT           -0.834       15.9994       0
   12058 TIP3 3939 TIP3 H1   HT            0.417         1.008       0
   12059 TIP3 3939 TIP3 H2   HT            0.417         1.008       0
   12060 TIP3 3940 TIP3 OH2  OT           -0.834       15.9994       0
   12061 TIP3 3940 TIP3 H1   HT            0.417         1.008       0
   12062 TIP3 3940 TIP3 H2   HT            0.417         1.008       0
   12063 TIP3 3941 TIP3 OH2  OT           -0.834       15.9994       0
   12064 TIP3 3941 TIP3 H1   HT            0.417         1.008       0
   12065 TIP3 3941 TIP3 H2   HT            0.417         1.008       0
   12066 TIP3 3942 TIP3 OH2  OT           -0.834       15.9994       0
   12067 TIP3 3942 TIP3 H1   HT            0.417         1.008       0
   12068 TIP3 3942 TIP3 H2   HT            0.417         1.008       0
   12069 TIP3 3943 TIP3 OH2  OT           -0.834       15.9994       0
   12070 TIP3 3943 TIP3 H1   HT            0.417         1.008       0
   12071 TIP3 3943 TIP3 H2   HT            0.417         1.008       0
   12072 TIP3 3944 TIP3 OH2  OT           -0.834       15.9994       0
   12073 TIP3 3944 TIP3 H1   HT            0.417         1.008       0
   12074 TIP3 3944 TIP3 H2   HT            0.417         1.008       0
   12075 TIP3 3945 TIP3 OH2  OT           -0.834       15.9994       0
   12076 TIP3 3945 TIP3 H1   HT            0.417         1.008       0
   12077 TIP3 3945 TIP3 H2   HT            0.417         1.008       0
   12078 TIP3 3946 TIP3 OH2  OT           -0.834       15.9994       0
   12079 TIP3 3946 TIP3 H1   HT            0.417         1.008       0
   12080 TIP3 3946 TIP3 H2   HT            0.417         1.008       0
   12081 TIP3 3947 TIP3 OH2  OT           -0.834       15.9994       0
   12082 TIP3 3947 TIP3 H1   HT            0.417         1.008       0
   12083 TIP3 3947 TIP3 H2   HT            0.417         1.008       0
   12084 TIP3 3948 TIP3 OH2  OT           -0.834       15.9994       0
   12085 TIP3 3948 TIP3 H1   HT            0.417         1.008       0
   12086 TIP3 3948 TIP3 H2   HT            0.417         1.008       0
   12087 TIP3 3949 TIP3 OH2  OT           -0.834       15.9994       0
   12088 TIP3 3949 TIP3 H1   HT            0.417         1.008       0
   12089 TIP3 3949 TIP3 H2   HT            0.417         1.008       0
   12090 TIP3 3950 TIP3 OH2  OT           -0.834       15.9994       0
   12091 TIP3 3950 TIP3 H1   HT            0.417         1.008       0
   12092 TIP3 3950 TIP3 H2   HT            0.417         1.008       0
   12093 TIP3 3951 TIP3 OH2  OT           -0.834       15.9994       0
   12094 TIP3 3951 TIP3 H1   HT            0.417         1.008       0
   12095 TIP3 3951 TIP3 H2   HT            0.417         1.008       0
   12096 TIP3 3952 TIP3 OH2  OT           -0.834       15.9994       0
   12097 TIP3 3952 TIP3 H1   HT            0.417         1.008       0
   12098 TIP3 3952 TIP3 H2   HT            0.417         1.008       0
   12099 TIP3 3953 TIP3 OH2  OT           -0.834       15.9994       0
   12100 TIP3 3953 TIP3 H1   HT            0.417         1.008       0
   12101 TIP3 3953 TIP3 H2   HT            0.417         1.008       0
   12102 TIP3 3954 TIP3 OH2  OT           -0.834       15.9994       0
   12103 TIP3 3954 TIP3 H1   HT            0.417         1.008       0
   12104 TIP3 3954 TIP3 H2   HT            0.417         1.008       0
   12105 TIP3 3955 TIP3 OH2  OT           -0.834       15.9994       0
   12106 TIP3 3955 TIP3 H1   HT            0.417         1.008       0
   12107 TIP3 3955 TIP3 H2   HT            0.417         1.008       0
   12108 TIP3 3956 TIP3 OH2  OT           -0.834       15.9994       0
   12109 TIP3 3956 TIP3 H1   HT            0.417         1.008       0
   12110 TIP3 3956 TIP3 H2   HT            0.417         1.008       0
   12111 TIP3 3957 TIP3 OH2  OT           -0.834       15.9994       0
   12112 TIP3 3957 TIP3 H1   HT            0.417         1.008       0
   12113 TIP3 3957 TIP3 H2   HT            0.417         1.008       0
   12114 TIP3 3958 TIP3 OH2  OT           -0.834       15.9994       0
   12115 TIP3 3958 TIP3 H1   HT            0.417         1.008       0
   12116 TIP3 3958 TIP3 H2   HT            0.417         1.008       0
   12117 TIP3 3959 TIP3 OH2  OT           -0.834       15.9994       0
   12118 TIP3 3959 TIP3 H1   HT            0.417         1.008       0
   12119 TIP3 3959 TIP3 H2   HT            0.417         1.008       0
   12120 TIP3 3960 TIP3 OH2  OT           -0.834       15.9994       0
   12121 TIP3 3960 TIP3 H1   HT            0.417         1.008       0
   12122 TIP3 3960 TIP3 H2   HT            0.417         1.008       0
   12123 TIP3 3961 TIP3 OH2  OT           -0.834       15.9994       0
   12124 TIP3 3961 TIP3 H1   HT            0.417         1.008       0
   12125 TIP3 3961 TIP3 H2   HT            0.417         1.008       0
   12126 TIP3 3962 TIP3 OH2  OT           -0.834       15.9994       0
   12127 TIP3 3962 TIP3 H1   HT            0.417         1.008       0
   12128 TIP3 3962 TIP3 H2   HT            0.417         1.008       0
   12129 TIP3 3963 TIP3 OH2  OT           -0.834       15.9994       0
   12130 TIP3 3963 TIP3 H1   HT            0.417         1.008       0
   12131 TIP3 3963 TIP3 H2   HT            0.417         1.008       0
   12132 TIP3 3964 TIP3 OH2  OT           -0.834       15.9994       0
   12133 TIP3 3964 TIP3 H1   HT            0.417         1.008       0
   12134 TIP3 3964 TIP3 H2   HT            0.417         1.008       0
   12135 TIP3 3965 TIP3 OH2  OT           -0.834       15.9994       0
   12136 TIP3 3965 TIP3 H1   HT            0.417         1.008       0
   12137 TIP3 3965 TIP3 H2   HT            0.417         1.008       0
   12138 TIP3 3966 TIP3 OH2  OT           -0.834       15.9994       0
   12139 TIP3 3966 TIP3 H1   HT            0.417         1.008       0
   12140 TIP3 3966 TIP3 H2   HT            0.417         1.008       0
   12141 TIP3 3967 TIP3 OH2  OT           -0.834       15.9994       0
   12142 TIP3 3967 TIP3 H1   HT            0.417         1.008       0
   12143 TIP3 3967 TIP3 H2   HT            0.417         1.008       0
   12144 TIP3 3968 TIP3 OH2  OT           -0.834       15.9994       0
   12145 TIP3 3968 TIP3 H1   HT            0.417         1.008       0
   12146 TIP3 3968 TIP3 H2   HT            0.417         1.008       0
   12147 TIP3 3969 TIP3 OH2  OT           -0.834       15.9994       0
   12148 TIP3 3969 TIP3 H1   HT            0.417         1.008       0
   12149 TIP3 3969 TIP3 H2   HT            0.417         1.008       0
   12150 TIP3 3970 TIP3 OH2  OT           -0.834       15.9994       0
   12151 TIP3 3970 TIP3 H1   HT            0.417         1.008       0
   12152 TIP3 3970 TIP3 H2   HT            0.417         1.008       0
   12153 TIP3 3971 TIP3 OH2  OT           -0.834       15.9994       0
   12154 TIP3 3971 TIP3 H1   HT            0.417         1.008       0
   12155 TIP3 3971 TIP3 H2   HT            0.417         1.008       0
   12156 TIP3 3972 TIP3 OH2  OT           -0.834       15.9994       0
   12157 TIP3 3972 TIP3 H1   HT            0.417         1.008       0
   12158 TIP3 3972 TIP3 H2   HT            0.417         1.008       0
   12159 TIP3 3973 TIP3 OH2  OT           -0.834       15.9994       0
   12160 TIP3 3973 TIP3 H1   HT            0.417         1.008       0
   12161 TIP3 3973 TIP3 H2   HT            0.417         1.008       0
   12162 TIP3 3974 TIP3 OH2  OT           -0.834       15.9994       0
   12163 TIP3 3974 TIP3 H1   HT            0.417         1.008       0
   12164 TIP3 3974 TIP3 H2   HT            0.417         1.008       0
   12165 TIP3 3975 TIP3 OH2  OT           -0.834       15.9994       0
   12166 TIP3 3975 TIP3 H1   HT            0.417         1.008       0
   12167 TIP3 3975 TIP3 H2   HT            0.417         1.008       0
   12168 TIP3 3976 TIP3 OH2  OT           -0.834       15.9994       0
   12169 TIP3 3976 TIP3 H1   HT            0.417         1.008       0
   12170 TIP3 3976 TIP3 H2   HT            0.417         1.008       0
   12171 TIP3 3977 TIP3 OH2  OT           -0.834       15.9994       0
   12172 TIP3 3977 TIP3 H1   HT            0.417         1.008       0
   12173 TIP3 3977 TIP3 H2   HT            0.417         1.008       0
   12174 TIP3 3978 TIP3 OH2  OT           -0.834       15.9994       0
   12175 TIP3 3978 TIP3 H1   HT            0.417         1.008       0
   12176 TIP3 3978 TIP3 H2   HT            0.417         1.008       0
   12177 TIP3 3979 TIP3 OH2  OT           -0.834       15.9994       0
   12178 TIP3 3979 TIP3 H1   HT            0.417         1.008       0
   12179 TIP3 3979 TIP3 H2   HT            0.417         1.008       0
   12180 TIP3 3980 TIP3 OH2  OT           -0.834       15.9994       0
   12181 TIP3 3980 TIP3 H1   HT            0.417         1.008       0
   12182 TIP3 3980 TIP3 H2   HT            0.417         1.008       0
   12183 TIP3 3981 TIP3 OH2  OT           -0.834       15.9994       0
   12184 TIP3 3981 TIP3 H1   HT            0.417         1.008       0
   12185 TIP3 3981 TIP3 H2   HT            0.417         1.008       0
   12186 TIP3 3982 TIP3 OH2  OT           -0.834       15.9994       0
   12187 TIP3 3982 TIP3 H1   HT            0.417         1.008       0
   12188 TIP3 3982 TIP3 H2   HT            0.417         1.008       0
   12189 TIP3 3983 TIP3 OH2  OT           -0.834       15.9994       0
   12190 TIP3 3983 TIP3 H1   HT            0.417         1.008       0
   12191 TIP3 3983 TIP3 H2   HT            0.417         1.008       0
   12192 TIP3 3984 TIP3 OH2  OT           -0.834       15.9994       0
   12193 TIP3 3984 TIP3 H1   HT            0.417         1.008       0
   12194 TIP3 3984 TIP3 H2   HT            0.417         1.008       0
   12195 TIP3 3985 TIP3 OH2  OT           -0.834       15.9994       0
   12196 TIP3 3985 TIP3 H1   HT            0.417         1.008       0
   12197 TIP3 3985 TIP3 H2   HT            0.417         1.008       0
   12198 TIP3 3986 TIP3 OH2  OT           -0.834       15.9994       0
   12199 TIP3 3986 TIP3 H1   HT            0.417         1.008       0
   12200 TIP3 3986 TIP3 H2   HT            0.417         1.008       0
   12201 TIP3 3987 TIP3 OH2  OT           -0.834       15.9994       0
   12202 TIP3 3987 TIP3 H1   HT            0.417         1.008       0
   12203 TIP3 3987 TIP3 H2   HT            0.417         1.008       0
   12204 TIP3 3988 TIP3 OH2  OT           -0.834       15.9994       0
   12205 TIP3 3988 TIP3 H1   HT            0.417         1.008       0
   12206 TIP3 3988 TIP3 H2   HT            0.417         1.008       0
   12207 TIP3 3989 TIP3 OH2  OT           -0.834       15.9994       0
   12208 TIP3 3989 TIP3 H1   HT            0.417         1.008       0
   12209 TIP3 3989 TIP3 H2   HT            0.417         1.008       0
   12210 TIP3 3990 TIP3 OH2  OT           -0.834       15.9994       0
   12211 TIP3 3990 TIP3 H1   HT            0.417         1.008       0
   12212 TIP3 3990 TIP3 H2   HT            0.417         1.008       0
   12213 TIP3 3991 TIP3 OH2  OT           -0.834       15.9994       0
   12214 TIP3 3991 TIP3 H1   HT            0.417         1.008       0
   12215 TIP3 3991 TIP3 H2   HT            0.417         1.008       0
   12216 TIP3 3992 TIP3 OH2  OT           -0.834       15.9994       0
   12217 TIP3 3992 TIP3 H1   HT            0.417         1.008       0
   12218 TIP3 3992 TIP3 H2   HT            0.417         1.008       0
   12219 TIP3 3993 TIP3 OH2  OT           -0.834       15.9994       0
   12220 TIP3 3993 TIP3 H1   HT            0.417         1.008       0
   12221 TIP3 3993 TIP3 H2   HT            0.417         1.008       0
   12222 TIP3 3994 TIP3 OH2  OT           -0.834       15.9994       0
   12223 TIP3 3994 TIP3 H1   HT            0.417         1.008       0
   12224 TIP3 3994 TIP3 H2   HT            0.417         1.008       0
   12225 TIP3 3995 TIP3 OH2  OT           -0.834       15.9994       0
   12226 TIP3 3995 TIP3 H1   HT            0.417         1.008       0
   12227 TIP3 3995 TIP3 H2   HT            0.417         1.008       0
   12228 TIP3 3996 TIP3 OH2  OT           -0.834       15.9994       0
   12229 TIP3 3996 TIP3 H1   HT            0.417         1.008       0
   12230 TIP3 3996 TIP3 H2   HT            0.417         1.008       0
   12231 TIP3 3997 TIP3 OH2  OT           -0.834       15.9994       0
   12232 TIP3 3997 TIP3 H1   HT            0.417         1.008       0
   12233 TIP3 3997 TIP3 H2   HT            0.417         1.008       0
   12234 TIP3 3998 TIP3 OH2  OT           -0.834       15.9994       0
   12235 TIP3 3998 TIP3 H1   HT            0.417         1.008       0
   12236 TIP3 3998 TIP3 H2   HT            0.417         1.008       0
   12237 TIP3 3999 TIP3 OH2  OT           -0.834       15.9994       0
   12238 TIP3 3999 TIP3 H1   HT            0.417         1.008       0
   12239 TIP3 3999 TIP3 H2   HT            0.417         1.008       0
   12240 TIP3 4000 TIP3 OH2  OT           -0.834       15.9994       0
   12241 TIP3 4000 TIP3 H1   HT            0.417         1.008       0
   12242 TIP3 4000 TIP3 H2   HT            0.417         1.008       0
   12243 TIP3 4001 TIP3 OH2  OT           -0.834       15.9994       0
   12244 TIP3 4001 TIP3 H1   HT            0.417         1.008       0
   12245 TIP3 4001 TIP3 H2   HT            0.417         1.008       0
   12246 TIP3 4002 TIP3 OH2  OT           -0.834       15.9994       0
   12247 TIP3 4002 TIP3 H1   HT            0.417         1.008       0
   12248 TIP3 4002 TIP3 H2   HT            0.417         1.008       0
   12249 TIP3 4003 TIP3 OH2  OT           -0.834       15.9994       0
   12250 TIP3 4003 TIP3 H1   HT            0.417         1.008       0
   12251 TIP3 4003 TIP3 H2   HT            0.417         1.008       0
   12252 TIP3 4004 TIP3 OH2  OT           -0.834       15.9994       0
   12253 TIP3 4004 TIP3 H1   HT            0.417         1.008       0
   12254 TIP3 4004 TIP3 H2   HT            0.417         1.008       0
   12255 TIP3 4005 TIP3 OH2  OT           -0.834       15.9994       0
   12256 TIP3 4005 TIP3 H1   HT            0.417         1.008       0
   12257 TIP3 4005 TIP3 H2   HT            0.417         1.008       0
   12258 TIP3 4006 TIP3 OH2  OT           -0.834       15.9994       0
   12259 TIP3 4006 TIP3 H1   HT            0.417         1.008       0
   12260 TIP3 4006 TIP3 H2   HT            0.417         1.008       0
   12261 TIP3 4007 TIP3 OH2  OT           -0.834       15.9994       0
   12262 TIP3 4007 TIP3 H1   HT            0.417         1.008       0
   12263 TIP3 4007 TIP3 H2   HT            0.417         1.008       0
   12264 TIP3 4008 TIP3 OH2  OT           -0.834       15.9994       0
   12265 TIP3 4008 TIP3 H1   HT            0.417         1.008       0
   12266 TIP3 4008 TIP3 H2   HT            0.417         1.008       0
   12267 TIP3 4009 TIP3 OH2  OT           -0.834       15.9994       0
   12268 TIP3 4009 TIP3 H1   HT            0.417         1.008       0
   12269 TIP3 4009 TIP3 H2   HT            0.417         1.008       0
   12270 TIP3 4010 TIP3 OH2  OT           -0.834       15.9994       0
   12271 TIP3 4010 TIP3 H1   HT            0.417         1.008       0
   12272 TIP3 4010 TIP3 H2   HT            0.417         1.008       0
   12273 TIP3 4011 TIP3 OH2  OT           -0.834       15.9994       0
   12274 TIP3 4011 TIP3 H1   HT            0.417         1.008       0
   12275 TIP3 4011 TIP3 H2   HT            0.417         1.008       0
   12276 TIP3 4012 TIP3 OH2  OT           -0.834       15.9994       0
   12277 TIP3 4012 TIP3 H1   HT            0.417         1.008       0
   12278 TIP3 4012 TIP3 H2   HT            0.417         1.008       0
   12279 TIP3 4013 TIP3 OH2  OT           -0.834       15.9994       0
   12280 TIP3 4013 TIP3 H1   HT            0.417         1.008       0
   12281 TIP3 4013 TIP3 H2   HT            0.417         1.008       0
   12282 TIP3 4014 TIP3 OH2  OT           -0.834       15.9994       0
   12283 TIP3 4014 TIP3 H1   HT            0.417         1.008       0
   12284 TIP3 4014 TIP3 H2   HT            0.417         1.008       0
   12285 TIP3 4015 TIP3 OH2  OT           -0.834       15.9994       0
   12286 TIP3 4015 TIP3 H1   HT            0.417         1.008       0
   12287 TIP3 4015 TIP3 H2   HT            0.417         1.008       0
   12288 TIP3 4016 TIP3 OH2  OT           -0.834       15.9994       0
   12289 TIP3 4016 TIP3 H1   HT            0.417         1.008       0
   12290 TIP3 4016 TIP3 H2   HT            0.417         1.008       0
   12291 TIP3 4017 TIP3 OH2  OT           -0.834       15.9994       0
   12292 TIP3 4017 TIP3 H1   HT            0.417         1.008       0
   12293 TIP3 4017 TIP3 H2   HT            0.417         1.008       0
   12294 TIP3 4018 TIP3 OH2  OT           -0.834       15.9994       0
   12295 TIP3 4018 TIP3 H1   HT            0.417         1.008       0
   12296 TIP3 4018 TIP3 H2   HT            0.417         1.008       0
   12297 TIP3 4019 TIP3 OH2  OT           -0.834       15.9994       0
   12298 TIP3 4019 TIP3 H1   HT            0.417         1.008       0
   12299 TIP3 4019 TIP3 H2   HT            0.417         1.008       0
   12300 TIP3 4020 TIP3 OH2  OT           -0.834       15.9994       0
   12301 TIP3 4020 TIP3 H1   HT            0.417         1.008       0
   12302 TIP3 4020 TIP3 H2   HT            0.417         1.008       0
   12303 TIP3 4021 TIP3 OH2  OT           -0.834       15.9994       0
   12304 TIP3 4021 TIP3 H1   HT            0.417         1.008       0
   12305 TIP3 4021 TIP3 H2   HT            0.417         1.008       0
   12306 TIP3 4022 TIP3 OH2  OT           -0.834       15.9994       0
   12307 TIP3 4022 TIP3 H1   HT            0.417         1.008       0
   12308 TIP3 4022 TIP3 H2   HT            0.417         1.008       0
   12309 TIP3 4023 TIP3 OH2  OT           -0.834       15.9994       0
   12310 TIP3 4023 TIP3 H1   HT            0.417         1.008       0
   12311 TIP3 4023 TIP3 H2   HT            0.417         1.008       0
   12312 TIP3 4024 TIP3 OH2  OT           -0.834       15.9994       0
   12313 TIP3 4024 TIP3 H1   HT            0.417         1.008       0
   12314 TIP3 4024 TIP3 H2   HT            0.417         1.008       0
   12315 TIP3 4025 TIP3 OH2  OT           -0.834       15.9994       0
   12316 TIP3 4025 TIP3 H1   HT            0.417         1.008       0
   12317 TIP3 4025 TIP3 H2   HT            0.417         1.008       0
   12318 TIP3 4026 TIP3 OH2  OT           -0.834       15.9994       0
   12319 TIP3 4026 TIP3 H1   HT            0.417         1.008       0
   12320 TIP3 4026 TIP3 H2   HT            0.417         1.008       0
   12321 TIP3 4027 TIP3 OH2  OT           -0.834       15.9994       0
   12322 TIP3 4027 TIP3 H1   HT            0.417         1.008       0
   12323 TIP3 4027 TIP3 H2   HT            0.417         1.008       0
   12324 TIP3 4028 TIP3 OH2  OT           -0.834       15.9994       0
   12325 TIP3 4028 TIP3 H1   HT            0.417         1.008       0
   12326 TIP3 4028 TIP3 H2   HT            0.417         1.008       0
   12327 TIP3 4029 TIP3 OH2  OT           -0.834       15.9994       0
   12328 TIP3 4029 TIP3 H1   HT            0.417         1.008       0
   12329 TIP3 4029 TIP3 H2   HT            0.417         1.008       0
   12330 TIP3 4030 TIP3 OH2  OT           -0.834       15.9994       0
   12331 TIP3 4030 TIP3 H1   HT            0.417         1.008       0
   12332 TIP3 4030 TIP3 H2   HT            0.417         1.008       0
   12333 TIP3 4031 TIP3 OH2  OT           -0.834       15.9994       0
   12334 TIP3 4031 TIP3 H1   HT            0.417         1.008       0
   12335 TIP3 4031 TIP3 H2   HT            0.417         1.008       0
   12336 TIP3 4032 TIP3 OH2  OT           -0.834       15.9994       0
   12337 TIP3 4032 TIP3 H1   HT            0.417         1.008       0
   12338 TIP3 4032 TIP3 H2   HT            0.417         1.008       0
   12339 TIP3 4033 TIP3 OH2  OT           -0.834       15.9994       0
   12340 TIP3 4033 TIP3 H1   HT            0.417         1.008       0
   12341 TIP3 4033 TIP3 H2   HT            0.417         1.008       0
   12342 TIP3 4034 TIP3 OH2  OT           -0.834       15.9994       0
   12343 TIP3 4034 TIP3 H1   HT            0.417         1.008       0
   12344 TIP3 4034 TIP3 H2   HT            0.417         1.008       0
   12345 TIP3 4035 TIP3 OH2  OT           -0.834       15.9994       0
   12346 TIP3 4035 TIP3 H1   HT            0.417         1.008       0
   12347 TIP3 4035 TIP3 H2   HT            0.417         1.008       0
   12348 TIP3 4036 TIP3 OH2  OT           -0.834       15.9994       0
   12349 TIP3 4036 TIP3 H1   HT            0.417         1.008       0
   12350 TIP3 4036 TIP3 H2   HT            0.417         1.008       0
   12351 TIP3 4037 TIP3 OH2  OT           -0.834       15.9994       0
   12352 TIP3 4037 TIP3 H1   HT            0.417         1.008       0
   12353 TIP3 4037 TIP3 H2   HT            0.417         1.008       0
   12354 TIP3 4038 TIP3 OH2  OT           -0.834       15.9994       0
   12355 TIP3 4038 TIP3 H1   HT            0.417         1.008       0
   12356 TIP3 4038 TIP3 H2   HT            0.417         1.008       0
   12357 TIP3 4039 TIP3 OH2  OT           -0.834       15.9994       0
   12358 TIP3 4039 TIP3 H1   HT            0.417         1.008       0
   12359 TIP3 4039 TIP3 H2   HT            0.417         1.008       0
   12360 TIP3 4040 TIP3 OH2  OT           -0.834       15.9994       0
   12361 TIP3 4040 TIP3 H1   HT            0.417         1.008       0
   12362 TIP3 4040 TIP3 H2   HT            0.417         1.008       0
   12363 TIP3 4041 TIP3 OH2  OT           -0.834       15.9994       0
   12364 TIP3 4041 TIP3 H1   HT            0.417         1.008       0
   12365 TIP3 4041 TIP3 H2   HT            0.417         1.008       0
   12366 TIP3 4042 TIP3 OH2  OT           -0.834       15.9994       0
   12367 TIP3 4042 TIP3 H1   HT            0.417         1.008       0
   12368 TIP3 4042 TIP3 H2   HT            0.417         1.008       0
   12369 TIP3 4043 TIP3 OH2  OT           -0.834       15.9994       0
   12370 TIP3 4043 TIP3 H1   HT            0.417         1.008       0
   12371 TIP3 4043 TIP3 H2   HT            0.417         1.008       0
   12372 TIP3 4044 TIP3 OH2  OT           -0.834       15.9994       0
   12373 TIP3 4044 TIP3 H1   HT            0.417         1.008       0
   12374 TIP3 4044 TIP3 H2   HT            0.417         1.008       0
   12375 TIP3 4045 TIP3 OH2  OT           -0.834       15.9994       0
   12376 TIP3 4045 TIP3 H1   HT            0.417         1.008       0
   12377 TIP3 4045 TIP3 H2   HT            0.417         1.008       0
   12378 TIP3 4046 TIP3 OH2  OT           -0.834       15.9994       0
   12379 TIP3 4046 TIP3 H1   HT            0.417         1.008       0
   12380 TIP3 4046 TIP3 H2   HT            0.417         1.008       0
   12381 TIP3 4047 TIP3 OH2  OT           -0.834       15.9994       0
   12382 TIP3 4047 TIP3 H1   HT            0.417         1.008       0
   12383 TIP3 4047 TIP3 H2   HT            0.417         1.008       0
   12384 TIP3 4048 TIP3 OH2  OT           -0.834       15.9994       0
   12385 TIP3 4048 TIP3 H1   HT            0.417         1.008       0
   12386 TIP3 4048 TIP3 H2   HT            0.417         1.008       0
   12387 TIP3 4049 TIP3 OH2  OT           -0.834       15.9994       0
   12388 TIP3 4049 TIP3 H1   HT            0.417         1.008       0
   12389 TIP3 4049 TIP3 H2   HT            0.417         1.008       0
   12390 TIP3 4050 TIP3 OH2  OT           -0.834       15.9994       0
   12391 TIP3 4050 TIP3 H1   HT            0.417         1.008       0
   12392 TIP3 4050 TIP3 H2   HT            0.417         1.008       0
   12393 TIP3 4051 TIP3 OH2  OT           -0.834       15.9994       0
   12394 TIP3 4051 TIP3 H1   HT            0.417         1.008       0
   12395 TIP3 4051 TIP3 H2   HT            0.417         1.008       0
   12396 TIP3 4052 TIP3 OH2  OT           -0.834       15.9994       0
   12397 TIP3 4052 TIP3 H1   HT            0.417         1.008       0
   12398 TIP3 4052 TIP3 H2   HT            0.417         1.008       0
   12399 TIP3 4053 TIP3 OH2  OT           -0.834       15.9994       0
   12400 TIP3 4053 TIP3 H1   HT            0.417         1.008       0
   12401 TIP3 4053 TIP3 H2   HT            0.417         1.008       0
   12402 TIP3 4054 TIP3 OH2  OT           -0.834       15.9994       0
   12403 TIP3 4054 TIP3 H1   HT            0.417         1.008       0
   12404 TIP3 4054 TIP3 H2   HT            0.417         1.008       0
   12405 TIP3 4055 TIP3 OH2  OT           -0.834       15.9994       0
   12406 TIP3 4055 TIP3 H1   HT            0.417         1.008       0
   12407 TIP3 4055 TIP3 H2   HT            0.417         1.008       0
   12408 TIP3 4056 TIP3 OH2  OT           -0.834       15.9994       0
   12409 TIP3 4056 TIP3 H1   HT            0.417         1.008       0
   12410 TIP3 4056 TIP3 H2   HT            0.417         1.008       0
   12411 TIP3 4057 TIP3 OH2  OT           -0.834       15.9994       0
   12412 TIP3 4057 TIP3 H1   HT            0.417         1.008       0
   12413 TIP3 4057 TIP3 H2   HT            0.417         1.008       0
   12414 TIP3 4058 TIP3 OH2  OT           -0.834       15.9994       0
   12415 TIP3 4058 TIP3 H1   HT            0.417         1.008       0
   12416 TIP3 4058 TIP3 H2   HT            0.417         1.008       0
   12417 TIP3 4059 TIP3 OH2  OT           -0.834       15.9994       0
   12418 TIP3 4059 TIP3 H1   HT            0.417         1.008       0
   12419 TIP3 4059 TIP3 H2   HT            0.417         1.008       0
   12420 TIP3 4060 TIP3 OH2  OT           -0.834       15.9994       0
   12421 TIP3 4060 TIP3 H1   HT            0.417         1.008       0
   12422 TIP3 4060 TIP3 H2   HT            0.417         1.008       0
   12423 TIP3 4061 TIP3 OH2  OT           -0.834       15.9994       0
   12424 TIP3 4061 TIP3 H1   HT            0.417         1.008       0
   12425 TIP3 4061 TIP3 H2   HT            0.417         1.008       0
   12426 TIP3 4062 TIP3 OH2  OT           -0.834       15.9994       0
   12427 TIP3 4062 TIP3 H1   HT            0.417         1.008       0
   12428 TIP3 4062 TIP3 H2   HT            0.417         1.008       0
   12429 TIP3 4063 TIP3 OH2  OT           -0.834       15.9994       0
   12430 TIP3 4063 TIP3 H1   HT            0.417         1.008       0
   12431 TIP3 4063 TIP3 H2   HT            0.417         1.008       0
   12432 TIP3 4064 TIP3 OH2  OT           -0.834       15.9994       0
   12433 TIP3 4064 TIP3 H1   HT            0.417         1.008       0
   12434 TIP3 4064 TIP3 H2   HT            0.417         1.008       0
   12435 TIP3 4065 TIP3 OH2  OT           -0.834       15.9994       0
   12436 TIP3 4065 TIP3 H1   HT            0.417         1.008       0
   12437 TIP3 4065 TIP3 H2   HT            0.417         1.008       0
   12438 TIP3 4066 TIP3 OH2  OT           -0.834       15.9994       0
   12439 TIP3 4066 TIP3 H1   HT            0.417         1.008       0
   12440 TIP3 4066 TIP3 H2   HT            0.417         1.008       0
   12441 TIP3 4067 TIP3 OH2  OT           -0.834       15.9994       0
   12442 TIP3 4067 TIP3 H1   HT            0.417         1.008       0
   12443 TIP3 4067 TIP3 H2   HT            0.417         1.008       0
   12444 TIP3 4068 TIP3 OH2  OT           -0.834       15.9994       0
   12445 TIP3 4068 TIP3 H1   HT            0.417         1.008       0
   12446 TIP3 4068 TIP3 H2   HT            0.417         1.008       0
   12447 TIP3 4069 TIP3 OH2  OT           -0.834       15.9994       0
   12448 TIP3 4069 TIP3 H1   HT            0.417         1.008       0
   12449 TIP3 4069 TIP3 H2   HT            0.417         1.008       0
   12450 TIP3 4070 TIP3 OH2  OT           -0.834       15.9994       0
   12451 TIP3 4070 TIP3 H1   HT            0.417         1.008       0
   12452 TIP3 4070 TIP3 H2   HT            0.417         1.008       0
   12453 TIP3 4071 TIP3 OH2  OT           -0.834       15.9994       0
   12454 TIP3 4071 TIP3 H1   HT            0.417         1.008       0
   12455 TIP3 4071 TIP3 H2   HT            0.417         1.008       0
   12456 TIP3 4072 TIP3 OH2  OT           -0.834       15.9994       0
   12457 TIP3 4072 TIP3 H1   HT            0.417         1.008       0
   12458 TIP3 4072 TIP3 H2   HT            0.417         1.008       0
   12459 TIP3 4073 TIP3 OH2  OT           -0.834       15.9994       0
   12460 TIP3 4073 TIP3 H1   HT            0.417         1.008       0
   12461 TIP3 4073 TIP3 H2   HT            0.417         1.008       0
   12462 TIP3 4074 TIP3 OH2  OT           -0.834       15.9994       0
   12463 TIP3 4074 TIP3 H1   HT            0.417         1.008       0
   12464 TIP3 4074 TIP3 H2   HT            0.417         1.008       0
   12465 TIP3 4075 TIP3 OH2  OT           -0.834       15.9994       0
   12466 TIP3 4075 TIP3 H1   HT            0.417         1.008       0
   12467 TIP3 4075 TIP3 H2   HT            0.417         1.008       0
   12468 TIP3 4076 TIP3 OH2  OT           -0.834       15.9994       0
   12469 TIP3 4076 TIP3 H1   HT            0.417         1.008       0
   12470 TIP3 4076 TIP3 H2   HT            0.417         1.008       0
   12471 TIP3 4077 TIP3 OH2  OT           -0.834       15.9994       0
   12472 TIP3 4077 TIP3 H1   HT            0.417         1.008       0
   12473 TIP3 4077 TIP3 H2   HT            0.417         1.008       0
   12474 TIP3 4078 TIP3 OH2  OT           -0.834       15.9994       0
   12475 TIP3 4078 TIP3 H1   HT            0.417         1.008       0
   12476 TIP3 4078 TIP3 H2   HT            0.417         1.008       0
   12477 TIP3 4079 TIP3 OH2  OT           -0.834       15.9994       0
   12478 TIP3 4079 TIP3 H1   HT            0.417         1.008       0
   12479 TIP3 4079 TIP3 H2   HT            0.417         1.008       0
   12480 TIP3 4080 TIP3 OH2  OT           -0.834       15.9994       0
   12481 TIP3 4080 TIP3 H1   HT            0.417         1.008       0
   12482 TIP3 4080 TIP3 H2   HT            0.417         1.008       0
   12483 TIP3 4081 TIP3 OH2  OT           -0.834       15.9994       0
   12484 TIP3 4081 TIP3 H1   HT            0.417         1.008       0
   12485 TIP3 4081 TIP3 H2   HT            0.417         1.008       0
   12486 TIP3 4082 TIP3 OH2  OT           -0.834       15.9994       0
   12487 TIP3 4082 TIP3 H1   HT            0.417         1.008       0
   12488 TIP3 4082 TIP3 H2   HT            0.417         1.008       0
   12489 TIP3 4083 TIP3 OH2  OT           -0.834       15.9994       0
   12490 TIP3 4083 TIP3 H1   HT            0.417         1.008       0
   12491 TIP3 4083 TIP3 H2   HT            0.417         1.008       0
   12492 TIP3 4084 TIP3 OH2  OT           -0.834       15.9994       0
   12493 TIP3 4084 TIP3 H1   HT            0.417         1.008       0
   12494 TIP3 4084 TIP3 H2   HT            0.417         1.008       0
   12495 TIP3 4085 TIP3 OH2  OT           -0.834       15.9994       0
   12496 TIP3 4085 TIP3 H1   HT            0.417         1.008       0
   12497 TIP3 4085 TIP3 H2   HT            0.417         1.008       0
   12498 TIP3 4086 TIP3 OH2  OT           -0.834       15.9994       0
   12499 TIP3 4086 TIP3 H1   HT            0.417         1.008       0
   12500 TIP3 4086 TIP3 H2   HT            0.417         1.008       0
   12501 TIP3 4087 TIP3 OH2  OT           -0.834       15.9994       0
   12502 TIP3 4087 TIP3 H1   HT            0.417         1.008       0
   12503 TIP3 4087 TIP3 H2   HT            0.417         1.008       0
   12504 TIP3 4088 TIP3 OH2  OT           -0.834       15.9994       0
   12505 TIP3 4088 TIP3 H1   HT            0.417         1.008       0
   12506 TIP3 4088 TIP3 H2   HT            0.417         1.008       0
   12507 TIP3 4089 TIP3 OH2  OT           -0.834       15.9994       0
   12508 TIP3 4089 TIP3 H1   HT            0.417         1.008       0
   12509 TIP3 4089 TIP3 H2   HT            0.417         1.008       0
   12510 TIP3 4090 TIP3 OH2  OT           -0.834       15.9994       0
   12511 TIP3 4090 TIP3 H1   HT            0.417         1.008       0
   12512 TIP3 4090 TIP3 H2   HT            0.417         1.008       0
   12513 TIP3 4091 TIP3 OH2  OT           -0.834       15.9994       0
   12514 TIP3 4091 TIP3 H1   HT            0.417         1.008       0
   12515 TIP3 4091 TIP3 H2   HT            0.417         1.008       0
   12516 TIP3 4092 TIP3 OH2  OT           -0.834       15.9994       0
   12517 TIP3 4092 TIP3 H1   HT            0.417         1.008       0
   12518 TIP3 4092 TIP3 H2   HT            0.417         1.008       0
   12519 TIP3 4093 TIP3 OH2  OT           -0.834       15.9994       0
   12520 TIP3 4093 TIP3 H1   HT            0.417         1.008       0
   12521 TIP3 4093 TIP3 H2   HT            0.417         1.008       0
   12522 TIP3 4094 TIP3 OH2  OT           -0.834       15.9994       0
   12523 TIP3 4094 TIP3 H1   HT            0.417         1.008       0
   12524 TIP3 4094 TIP3 H2   HT            0.417         1.008       0
   12525 TIP3 4095 TIP3 OH2  OT           -0.834       15.9994       0
   12526 TIP3 4095 TIP3 H1   HT            0.417         1.008       0
   12527 TIP3 4095 TIP3 H2   HT            0.417         1.008       0
   12528 TIP3 4096 TIP3 OH2  OT           -0.834       15.9994       0
   12529 TIP3 4096 TIP3 H1   HT            0.417         1.008       0
   12530 TIP3 4096 TIP3 H2   HT            0.417         1.008       0
   12531 TIP3 4097 TIP3 OH2  OT           -0.834       15.9994       0
   12532 TIP3 4097 TIP3 H1   HT            0.417         1.008       0
   12533 TIP3 4097 TIP3 H2   HT            0.417         1.008       0
   12534 TIP3 4098 TIP3 OH2  OT           -0.834       15.9994       0
   12535 TIP3 4098 TIP3 H1   HT            0.417         1.008       0
   12536 TIP3 4098 TIP3 H2   HT            0.417         1.008       0
   12537 TIP3 4099 TIP3 OH2  OT           -0.834       15.9994       0
   12538 TIP3 4099 TIP3 H1   HT            0.417         1.008       0
   12539 TIP3 4099 TIP3 H2   HT            0.417         1.008       0
   12540 TIP3 4100 TIP3 OH2  OT           -0.834       15.9994       0
   12541 TIP3 4100 TIP3 H1   HT            0.417         1.008       0
   12542 TIP3 4100 TIP3 H2   HT            0.417         1.008       0
   12543 TIP3 4101 TIP3 OH2  OT           -0.834       15.9994       0
   12544 TIP3 4101 TIP3 H1   HT            0.417         1.008       0
   12545 TIP3 4101 TIP3 H2   HT            0.417         1.008       0
   12546 TIP3 4102 TIP3 OH2  OT           -0.834       15.9994       0
   12547 TIP3 4102 TIP3 H1   HT            0.417         1.008       0
   12548 TIP3 4102 TIP3 H2   HT            0.417         1.008       0
   12549 TIP3 4103 TIP3 OH2  OT           -0.834       15.9994       0
   12550 TIP3 4103 TIP3 H1   HT            0.417         1.008       0
   12551 TIP3 4103 TIP3 H2   HT            0.417         1.008       0
   12552 TIP3 4104 TIP3 OH2  OT           -0.834       15.9994       0
   12553 TIP3 4104 TIP3 H1   HT            0.417         1.008       0
   12554 TIP3 4104 TIP3 H2   HT            0.417         1.008       0
   12555 TIP3 4105 TIP3 OH2  OT           -0.834       15.9994       0
   12556 TIP3 4105 TIP3 H1   HT            0.417         1.008       0
   12557 TIP3 4105 TIP3 H2   HT            0.417         1.008       0
   12558 TIP3 4106 TIP3 OH2  OT           -0.834       15.9994       0
   12559 TIP3 4106 TIP3 H1   HT            0.417         1.008       0
   12560 TIP3 4106 TIP3 H2   HT            0.417         1.008       0
   12561 TIP3 4107 TIP3 OH2  OT           -0.834       15.9994       0
   12562 TIP3 4107 TIP3 H1   HT            0.417         1.008       0
   12563 TIP3 4107 TIP3 H2   HT            0.417         1.008       0
   12564 TIP3 4108 TIP3 OH2  OT           -0.834       15.9994       0
   12565 TIP3 4108 TIP3 H1   HT            0.417         1.008       0
   12566 TIP3 4108 TIP3 H2   HT            0.417         1.008       0
   12567 TIP3 4109 TIP3 OH2  OT           -0.834       15.9994       0
   12568 TIP3 4109 TIP3 H1   HT            0.417         1.008       0
   12569 TIP3 4109 TIP3 H2   HT            0.417         1.008       0
   12570 TIP3 4110 TIP3 OH2  OT           -0.834       15.9994       0
   12571 TIP3 4110 TIP3 H1   HT            0.417         1.008       0
   12572 TIP3 4110 TIP3 H2   HT            0.417         1.008       0
   12573 TIP3 4111 TIP3 OH2  OT           -0.834       15.9994       0
   12574 TIP3 4111 TIP3 H1   HT            0.417         1.008       0
   12575 TIP3 4111 TIP3 H2   HT            0.417         1.008       0
   12576 TIP3 4112 TIP3 OH2  OT           -0.834       15.9994       0
   12577 TIP3 4112 TIP3 H1   HT            0.417         1.008       0
   12578 TIP3 4112 TIP3 H2   HT            0.417         1.008       0
   12579 TIP3 4113 TIP3 OH2  OT           -0.834       15.9994       0
   12580 TIP3 4113 TIP3 H1   HT            0.417         1.008       0
   12581 TIP3 4113 TIP3 H2   HT            0.417         1.008       0
   12582 TIP3 4114 TIP3 OH2  OT           -0.834       15.9994       0
   12583 TIP3 4114 TIP3 H1   HT            0.417         1.008       0
   12584 TIP3 4114 TIP3 H2   HT            0.417         1.008       0
   12585 TIP3 4115 TIP3 OH2  OT           -0.834       15.9994       0
   12586 TIP3 4115 TIP3 H1   HT            0.417         1.008       0
   12587 TIP3 4115 TIP3 H2   HT            0.417         1.008       0
   12588 TIP3 4116 TIP3 OH2  OT           -0.834       15.9994       0
   12589 TIP3 4116 TIP3 H1   HT            0.417         1.008       0
   12590 TIP3 4116 TIP3 H2   HT            0.417         1.008       0
   12591 TIP3 4117 TIP3 OH2  OT           -0.834       15.9994       0
   12592 TIP3 4117 TIP3 H1   HT            0.417         1.008       0
   12593 TIP3 4117 TIP3 H2   HT            0.417         1.008       0
   12594 TIP3 4118 TIP3 OH2  OT           -0.834       15.9994       0
   12595 TIP3 4118 TIP3 H1   HT            0.417         1.008       0
   12596 TIP3 4118 TIP3 H2   HT            0.417         1.008       0
   12597 TIP3 4119 TIP3 OH2  OT           -0.834       15.9994       0
   12598 TIP3 4119 TIP3 H1   HT            0.417         1.008       0
   12599 TIP3 4119 TIP3 H2   HT            0.417         1.008       0
   12600 TIP3 4120 TIP3 OH2  OT           -0.834       15.9994       0
   12601 TIP3 4120 TIP3 H1   HT            0.417         1.008       0
   12602 TIP3 4120 TIP3 H2   HT            0.417         1.008       0
   12603 TIP3 4121 TIP3 OH2  OT           -0.834       15.9994       0
   12604 TIP3 4121 TIP3 H1   HT            0.417         1.008       0
   12605 TIP3 4121 TIP3 H2   HT            0.417         1.008       0
   12606 TIP3 4122 TIP3 OH2  OT           -0.834       15.9994       0
   12607 TIP3 4122 TIP3 H1   HT            0.417         1.008       0
   12608 TIP3 4122 TIP3 H2   HT            0.417         1.008       0
   12609 TIP3 4123 TIP3 OH2  OT           -0.834       15.9994       0
   12610 TIP3 4123 TIP3 H1   HT            0.417         1.008       0
   12611 TIP3 4123 TIP3 H2   HT            0.417         1.008       0
   12612 TIP3 4124 TIP3 OH2  OT           -0.834       15.9994       0
   12613 TIP3 4124 TIP3 H1   HT            0.417         1.008       0
   12614 TIP3 4124 TIP3 H2   HT            0.417         1.008       0
   12615 TIP3 4125 TIP3 OH2  OT           -0.834       15.9994       0
   12616 TIP3 4125 TIP3 H1   HT            0.417         1.008       0
   12617 TIP3 4125 TIP3 H2   HT            0.417         1.008       0
   12618 TIP3 4126 TIP3 OH2  OT           -0.834       15.9994       0
   12619 TIP3 4126 TIP3 H1   HT            0.417         1.008       0
   12620 TIP3 4126 TIP3 H2   HT            0.417         1.008       0
   12621 TIP3 4127 TIP3 OH2  OT           -0.834       15.9994       0
   12622 TIP3 4127 TIP3 H1   HT            0.417         1.008       0
   12623 TIP3 4127 TIP3 H2   HT            0.417         1.008       0
   12624 TIP3 4128 TIP3 OH2  OT           -0.834       15.9994       0
   12625 TIP3 4128 TIP3 H1   HT            0.417         1.008       0
   12626 TIP3 4128 TIP3 H2   HT            0.417         1.008       0
   12627 TIP3 4129 TIP3 OH2  OT           -0.834       15.9994       0
   12628 TIP3 4129 TIP3 H1   HT            0.417         1.008       0
   12629 TIP3 4129 TIP3 H2   HT            0.417         1.008       0
   12630 TIP3 4130 TIP3 OH2  OT           -0.834       15.9994       0
   12631 TIP3 4130 TIP3 H1   HT            0.417         1.008       0
   12632 TIP3 4130 TIP3 H2   HT            0.417         1.008       0
   12633 TIP3 4131 TIP3 OH2  OT           -0.834       15.9994       0
   12634 TIP3 4131 TIP3 H1   HT            0.417         1.008       0
   12635 TIP3 4131 TIP3 H2   HT            0.417         1.008       0
   12636 TIP3 4132 TIP3 OH2  OT           -0.834       15.9994       0
   12637 TIP3 4132 TIP3 H1   HT            0.417         1.008       0
   12638 TIP3 4132 TIP3 H2   HT            0.417         1.008       0
   12639 TIP3 4133 TIP3 OH2  OT           -0.834       15.9994       0
   12640 TIP3 4133 TIP3 H1   HT            0.417         1.008       0
   12641 TIP3 4133 TIP3 H2   HT            0.417         1.008       0
   12642 TIP3 4134 TIP3 OH2  OT           -0.834       15.9994       0
   12643 TIP3 4134 TIP3 H1   HT            0.417         1.008       0
   12644 TIP3 4134 TIP3 H2   HT            0.417         1.008       0
   12645 TIP3 4135 TIP3 OH2  OT           -0.834       15.9994       0
   12646 TIP3 4135 TIP3 H1   HT            0.417         1.008       0
   12647 TIP3 4135 TIP3 H2   HT            0.417         1.008       0
   12648 TIP3 4136 TIP3 OH2  OT           -0.834       15.9994       0
   12649 TIP3 4136 TIP3 H1   HT            0.417         1.008       0
   12650 TIP3 4136 TIP3 H2   HT            0.417         1.008       0
   12651 TIP3 4137 TIP3 OH2  OT           -0.834       15.9994       0
   12652 TIP3 4137 TIP3 H1   HT            0.417         1.008       0
   12653 TIP3 4137 TIP3 H2   HT            0.417         1.008       0
   12654 TIP3 4138 TIP3 OH2  OT           -0.834       15.9994       0
   12655 TIP3 4138 TIP3 H1   HT            0.417         1.008       0
   12656 TIP3 4138 TIP3 H2   HT            0.417         1.008       0
   12657 TIP3 4139 TIP3 OH2  OT           -0.834       15.9994       0
   12658 TIP3 4139 TIP3 H1   HT            0.417         1.008       0
   12659 TIP3 4139 TIP3 H2   HT            0.417         1.008       0
   12660 TIP3 4140 TIP3 OH2  OT           -0.834       15.9994       0
   12661 TIP3 4140 TIP3 H1   HT            0.417         1.008       0
   12662 TIP3 4140 TIP3 H2   HT            0.417         1.008       0
   12663 TIP3 4141 TIP3 OH2  OT           -0.834       15.9994       0
   12664 TIP3 4141 TIP3 H1   HT            0.417         1.008       0
   12665 TIP3 4141 TIP3 H2   HT            0.417         1.008       0
   12666 TIP3 4142 TIP3 OH2  OT           -0.834       15.9994       0
   12667 TIP3 4142 TIP3 H1   HT            0.417         1.008       0
   12668 TIP3 4142 TIP3 H2   HT            0.417         1.008       0
   12669 TIP3 4143 TIP3 OH2  OT           -0.834       15.9994       0
   12670 TIP3 4143 TIP3 H1   HT            0.417         1.008       0
   12671 TIP3 4143 TIP3 H2   HT            0.417         1.008       0
   12672 TIP3 4144 TIP3 OH2  OT           -0.834       15.9994       0
   12673 TIP3 4144 TIP3 H1   HT            0.417         1.008       0
   12674 TIP3 4144 TIP3 H2   HT            0.417         1.008       0
   12675 TIP3 4145 TIP3 OH2  OT           -0.834       15.9994       0
   12676 TIP3 4145 TIP3 H1   HT            0.417         1.008       0
   12677 TIP3 4145 TIP3 H2   HT            0.417         1.008       0
   12678 TIP3 4146 TIP3 OH2  OT           -0.834       15.9994       0
   12679 TIP3 4146 TIP3 H1   HT            0.417         1.008       0
   12680 TIP3 4146 TIP3 H2   HT            0.417         1.008       0
   12681 TIP3 4147 TIP3 OH2  OT           -0.834       15.9994       0
   12682 TIP3 4147 TIP3 H1   HT            0.417         1.008       0
   12683 TIP3 4147 TIP3 H2   HT            0.417         1.008       0
   12684 TIP3 4148 TIP3 OH2  OT           -0.834       15.9994       0
   12685 TIP3 4148 TIP3 H1   HT            0.417         1.008       0
   12686 TIP3 4148 TIP3 H2   HT            0.417         1.008       0
   12687 TIP3 4149 TIP3 OH2  OT           -0.834       15.9994       0
   12688 TIP3 4149 TIP3 H1   HT            0.417         1.008       0
   12689 TIP3 4149 TIP3 H2   HT            0.417         1.008       0
   12690 TIP3 4150 TIP3 OH2  OT           -0.834       15.9994       0
   12691 TIP3 4150 TIP3 H1   HT            0.417         1.008       0
   12692 TIP3 4150 TIP3 H2   HT            0.417         1.008       0
   12693 TIP3 4151 TIP3 OH2  OT           -0.834       15.9994       0
   12694 TIP3 4151 TIP3 H1   HT            0.417         1.008       0
   12695 TIP3 4151 TIP3 H2   HT            0.417         1.008       0
   12696 TIP3 4152 TIP3 OH2  OT           -0.834       15.9994       0
   12697 TIP3 4152 TIP3 H1   HT            0.417         1.008       0
   12698 TIP3 4152 TIP3 H2   HT            0.417         1.008       0
   12699 TIP3 4153 TIP3 OH2  OT           -0.834       15.9994       0
   12700 TIP3 4153 TIP3 H1   HT            0.417         1.008       0
   12701 TIP3 4153 TIP3 H2   HT            0.417         1.008       0
   12702 TIP3 4154 TIP3 OH2  OT           -0.834       15.9994       0
   12703 TIP3 4154 TIP3 H1   HT            0.417         1.008       0
   12704 TIP3 4154 TIP3 H2   HT            0.417         1.008       0
   12705 TIP3 4155 TIP3 OH2  OT           -0.834       15.9994       0
   12706 TIP3 4155 TIP3 H1   HT            0.417         1.008       0
   12707 TIP3 4155 TIP3 H2   HT            0.417         1.008       0
   12708 TIP3 4156 TIP3 OH2  OT           -0.834       15.9994       0
   12709 TIP3 4156 TIP3 H1   HT            0.417         1.008       0
   12710 TIP3 4156 TIP3 H2   HT            0.417         1.008       0
   12711 TIP3 4157 TIP3 OH2  OT           -0.834       15.9994       0
   12712 TIP3 4157 TIP3 H1   HT            0.417         1.008       0
   12713 TIP3 4157 TIP3 H2   HT            0.417         1.008       0
   12714 TIP3 4158 TIP3 OH2  OT           -0.834       15.9994       0
   12715 TIP3 4158 TIP3 H1   HT            0.417         1.008       0
   12716 TIP3 4158 TIP3 H2   HT            0.417         1.008       0
   12717 TIP3 4159 TIP3 OH2  OT           -0.834       15.9994       0
   12718 TIP3 4159 TIP3 H1   HT            0.417         1.008       0
   12719 TIP3 4159 TIP3 H2   HT            0.417         1.008       0
   12720 TIP3 4160 TIP3 OH2  OT           -0.834       15.9994       0
   12721 TIP3 4160 TIP3 H1   HT            0.417         1.008       0
   12722 TIP3 4160 TIP3 H2   HT            0.417         1.008       0
   12723 TIP3 4161 TIP3 OH2  OT           -0.834       15.9994       0
   12724 TIP3 4161 TIP3 H1   HT            0.417         1.008       0
   12725 TIP3 4161 TIP3 H2   HT            0.417         1.008       0
   12726 TIP3 4162 TIP3 OH2  OT           -0.834       15.9994       0
   12727 TIP3 4162 TIP3 H1   HT            0.417         1.008       0
   12728 TIP3 4162 TIP3 H2   HT            0.417         1.008       0
   12729 TIP3 4163 TIP3 OH2  OT           -0.834       15.9994       0
   12730 TIP3 4163 TIP3 H1   HT            0.417         1.008       0
   12731 TIP3 4163 TIP3 H2   HT            0.417         1.008       0
   12732 TIP3 4164 TIP3 OH2  OT           -0.834       15.9994       0
   12733 TIP3 4164 TIP3 H1   HT            0.417         1.008       0
   12734 TIP3 4164 TIP3 H2   HT            0.417         1.008       0
   12735 TIP3 4165 TIP3 OH2  OT           -0.834       15.9994       0
   12736 TIP3 4165 TIP3 H1   HT            0.417         1.008       0
   12737 TIP3 4165 TIP3 H2   HT            0.417         1.008       0
   12738 TIP3 4166 TIP3 OH2  OT           -0.834       15.9994       0
   12739 TIP3 4166 TIP3 H1   HT            0.417         1.008       0
   12740 TIP3 4166 TIP3 H2   HT            0.417         1.008       0
   12741 TIP3 4167 TIP3 OH2  OT           -0.834       15.9994       0
   12742 TIP3 4167 TIP3 H1   HT            0.417         1.008       0
   12743 TIP3 4167 TIP3 H2   HT            0.417         1.008       0
   12744 TIP3 4168 TIP3 OH2  OT           -0.834       15.9994       0
   12745 TIP3 4168 TIP3 H1   HT            0.417         1.008       0
   12746 TIP3 4168 TIP3 H2   HT            0.417         1.008       0
   12747 TIP3 4169 TIP3 OH2  OT           -0.834       15.9994       0
   12748 TIP3 4169 TIP3 H1   HT            0.417         1.008       0
   12749 TIP3 4169 TIP3 H2   HT            0.417         1.008       0
   12750 TIP3 4170 TIP3 OH2  OT           -0.834       15.9994       0
   12751 TIP3 4170 TIP3 H1   HT            0.417         1.008       0
   12752 TIP3 4170 TIP3 H2   HT            0.417         1.008       0
   12753 TIP3 4171 TIP3 OH2  OT           -0.834       15.9994       0
   12754 TIP3 4171 TIP3 H1   HT            0.417         1.008       0
   12755 TIP3 4171 TIP3 H2   HT            0.417         1.008       0
   12756 TIP3 4172 TIP3 OH2  OT           -0.834       15.9994       0
   12757 TIP3 4172 TIP3 H1   HT            0.417         1.008       0
   12758 TIP3 4172 TIP3 H2   HT            0.417         1.008       0
   12759 TIP3 4173 TIP3 OH2  OT           -0.834       15.9994       0
   12760 TIP3 4173 TIP3 H1   HT            0.417         1.008       0
   12761 TIP3 4173 TIP3 H2   HT            0.417         1.008       0
   12762 TIP3 4174 TIP3 OH2  OT           -0.834       15.9994       0
   12763 TIP3 4174 TIP3 H1   HT            0.417         1.008       0
   12764 TIP3 4174 TIP3 H2   HT            0.417         1.008       0
   12765 TIP3 4175 TIP3 OH2  OT           -0.834       15.9994       0
   12766 TIP3 4175 TIP3 H1   HT            0.417         1.008       0
   12767 TIP3 4175 TIP3 H2   HT            0.417         1.008       0
   12768 TIP3 4176 TIP3 OH2  OT           -0.834       15.9994       0
   12769 TIP3 4176 TIP3 H1   HT            0.417         1.008       0
   12770 TIP3 4176 TIP3 H2   HT            0.417         1.008       0
   12771 TIP3 4177 TIP3 OH2  OT           -0.834       15.9994       0
   12772 TIP3 4177 TIP3 H1   HT            0.417         1.008       0
   12773 TIP3 4177 TIP3 H2   HT            0.417         1.008       0
   12774 TIP3 4178 TIP3 OH2  OT           -0.834       15.9994       0
   12775 TIP3 4178 TIP3 H1   HT            0.417         1.008       0
   12776 TIP3 4178 TIP3 H2   HT            0.417         1.008       0
   12777 TIP3 4179 TIP3 OH2  OT           -0.834       15.9994       0
   12778 TIP3 4179 TIP3 H1   HT            0.417         1.008       0
   12779 TIP3 4179 TIP3 H2   HT            0.417         1.008       0
   12780 TIP3 4180 TIP3 OH2  OT           -0.834       15.9994       0
   12781 TIP3 4180 TIP3 H1   HT            0.417         1.008       0
   12782 TIP3 4180 TIP3 H2   HT            0.417         1.008       0
   12783 TIP3 4181 TIP3 OH2  OT           -0.834       15.9994       0
   12784 TIP3 4181 TIP3 H1   HT            0.417         1.008       0
   12785 TIP3 4181 TIP3 H2   HT            0.417         1.008       0
   12786 TIP3 4182 TIP3 OH2  OT           -0.834       15.9994       0
   12787 TIP3 4182 TIP3 H1   HT            0.417         1.008       0
   12788 TIP3 4182 TIP3 H2   HT            0.417         1.008       0
   12789 TIP3 4183 TIP3 OH2  OT           -0.834       15.9994       0
   12790 TIP3 4183 TIP3 H1   HT            0.417         1.008       0
   12791 TIP3 4183 TIP3 H2   HT            0.417         1.008       0
   12792 TIP3 4184 TIP3 OH2  OT           -0.834       15.9994       0
   12793 TIP3 4184 TIP3 H1   HT            0.417         1.008       0
   12794 TIP3 4184 TIP3 H2   HT            0.417         1.008       0
   12795 TIP3 4185 TIP3 OH2  OT           -0.834       15.9994       0
   12796 TIP3 4185 TIP3 H1   HT            0.417         1.008       0
   12797 TIP3 4185 TIP3 H2   HT            0.417         1.008       0
   12798 TIP3 4186 TIP3 OH2  OT           -0.834       15.9994       0
   12799 TIP3 4186 TIP3 H1   HT            0.417         1.008       0
   12800 TIP3 4186 TIP3 H2   HT            0.417         1.008       0
   12801 TIP3 4187 TIP3 OH2  OT           -0.834       15.9994       0
   12802 TIP3 4187 TIP3 H1   HT            0.417         1.008       0
   12803 TIP3 4187 TIP3 H2   HT            0.417         1.008       0
   12804 TIP3 4188 TIP3 OH2  OT           -0.834       15.9994       0
   12805 TIP3 4188 TIP3 H1   HT            0.417         1.008       0
   12806 TIP3 4188 TIP3 H2   HT            0.417         1.008       0
   12807 TIP3 4189 TIP3 OH2  OT           -0.834       15.9994       0
   12808 TIP3 4189 TIP3 H1   HT            0.417         1.008       0
   12809 TIP3 4189 TIP3 H2   HT            0.417         1.008       0
   12810 TIP3 4190 TIP3 OH2  OT           -0.834       15.9994       0
   12811 TIP3 4190 TIP3 H1   HT            0.417         1.008       0
   12812 TIP3 4190 TIP3 H2   HT            0.417         1.008       0
   12813 TIP3 4191 TIP3 OH2  OT           -0.834       15.9994       0
   12814 TIP3 4191 TIP3 H1   HT            0.417         1.008       0
   12815 TIP3 4191 TIP3 H2   HT            0.417         1.008       0
   12816 TIP3 4192 TIP3 OH2  OT           -0.834       15.9994       0
   12817 TIP3 4192 TIP3 H1   HT            0.417         1.008       0
   12818 TIP3 4192 TIP3 H2   HT            0.417         1.008       0
   12819 TIP3 4193 TIP3 OH2  OT           -0.834       15.9994       0
   12820 TIP3 4193 TIP3 H1   HT            0.417         1.008       0
   12821 TIP3 4193 TIP3 H2   HT            0.417         1.008       0
   12822 TIP3 4194 TIP3 OH2  OT           -0.834       15.9994       0
   12823 TIP3 4194 TIP3 H1   HT            0.417         1.008       0
   12824 TIP3 4194 TIP3 H2   HT            0.417         1.008       0
   12825 TIP3 4195 TIP3 OH2  OT           -0.834       15.9994       0
   12826 TIP3 4195 TIP3 H1   HT            0.417         1.008       0
   12827 TIP3 4195 TIP3 H2   HT            0.417         1.008       0
   12828 TIP3 4196 TIP3 OH2  OT           -0.834       15.9994       0
   12829 TIP3 4196 TIP3 H1   HT            0.417         1.008       0
   12830 TIP3 4196 TIP3 H2   HT            0.417         1.008       0
   12831 TIP3 4197 TIP3 OH2  OT           -0.834       15.9994       0
   12832 TIP3 4197 TIP3 H1   HT            0.417         1.008       0
   12833 TIP3 4197 TIP3 H2   HT            0.417         1.008       0
   12834 TIP3 4198 TIP3 OH2  OT           -0.834       15.9994       0
   12835 TIP3 4198 TIP3 H1   HT            0.417         1.008       0
   12836 TIP3 4198 TIP3 H2   HT            0.417         1.008       0
   12837 TIP3 4199 TIP3 OH2  OT           -0.834       15.9994       0
   12838 TIP3 4199 TIP3 H1   HT            0.417         1.008       0
   12839 TIP3 4199 TIP3 H2   HT            0.417         1.008       0
   12840 TIP3 4200 TIP3 OH2  OT           -0.834       15.9994       0
   12841 TIP3 4200 TIP3 H1   HT            0.417         1.008       0
   12842 TIP3 4200 TIP3 H2   HT            0.417         1.008       0
   12843 TIP3 4201 TIP3 OH2  OT           -0.834       15.9994       0
   12844 TIP3 4201 TIP3 H1   HT            0.417         1.008       0
   12845 TIP3 4201 TIP3 H2   HT            0.417         1.008       0
   12846 TIP3 4202 TIP3 OH2  OT           -0.834       15.9994       0
   12847 TIP3 4202 TIP3 H1   HT            0.417         1.008       0
   12848 TIP3 4202 TIP3 H2   HT            0.417         1.008       0
   12849 TIP3 4203 TIP3 OH2  OT           -0.834       15.9994       0
   12850 TIP3 4203 TIP3 H1   HT            0.417         1.008       0
   12851 TIP3 4203 TIP3 H2   HT            0.417         1.008       0
   12852 TIP3 4204 TIP3 OH2  OT           -0.834       15.9994       0
   12853 TIP3 4204 TIP3 H1   HT            0.417         1.008       0
   12854 TIP3 4204 TIP3 H2   HT            0.417         1.008       0
   12855 TIP3 4205 TIP3 OH2  OT           -0.834       15.9994       0
   12856 TIP3 4205 TIP3 H1   HT            0.417         1.008       0
   12857 TIP3 4205 TIP3 H2   HT            0.417         1.008       0
   12858 TIP3 4206 TIP3 OH2  OT           -0.834       15.9994       0
   12859 TIP3 4206 TIP3 H1   HT            0.417         1.008       0
   12860 TIP3 4206 TIP3 H2   HT            0.417         1.008       0
   12861 TIP3 4207 TIP3 OH2  OT           -0.834       15.9994       0
   12862 TIP3 4207 TIP3 H1   HT            0.417         1.008       0
   12863 TIP3 4207 TIP3 H2   HT            0.417         1.008       0
   12864 TIP3 4208 TIP3 OH2  OT           -0.834       15.9994       0
   12865 TIP3 4208 TIP3 H1   HT            0.417         1.008       0
   12866 TIP3 4208 TIP3 H2   HT            0.417         1.008       0
   12867 TIP3 4209 TIP3 OH2  OT           -0.834       15.9994       0
   12868 TIP3 4209 TIP3 H1   HT            0.417         1.008       0
   12869 TIP3 4209 TIP3 H2   HT            0.417         1.008       0
   12870 TIP3 4210 TIP3 OH2  OT           -0.834       15.9994       0
   12871 TIP3 4210 TIP3 H1   HT            0.417         1.008       0
   12872 TIP3 4210 TIP3 H2   HT            0.417         1.008       0
   12873 TIP3 4211 TIP3 OH2  OT           -0.834       15.9994       0
   12874 TIP3 4211 TIP3 H1   HT            0.417         1.008       0
   12875 TIP3 4211 TIP3 H2   HT            0.417         1.008       0
   12876 TIP3 4212 TIP3 OH2  OT           -0.834       15.9994       0
   12877 TIP3 4212 TIP3 H1   HT            0.417         1.008       0
   12878 TIP3 4212 TIP3 H2   HT            0.417         1.008       0
   12879 TIP3 4213 TIP3 OH2  OT           -0.834       15.9994       0
   12880 TIP3 4213 TIP3 H1   HT            0.417         1.008       0
   12881 TIP3 4213 TIP3 H2   HT            0.417         1.008       0
   12882 TIP3 4214 TIP3 OH2  OT           -0.834       15.9994       0
   12883 TIP3 4214 TIP3 H1   HT            0.417         1.008       0
   12884 TIP3 4214 TIP3 H2   HT            0.417         1.008       0
   12885 TIP3 4215 TIP3 OH2  OT           -0.834       15.9994       0
   12886 TIP3 4215 TIP3 H1   HT            0.417         1.008       0
   12887 TIP3 4215 TIP3 H2   HT            0.417         1.008       0
   12888 TIP3 4216 TIP3 OH2  OT           -0.834       15.9994       0
   12889 TIP3 4216 TIP3 H1   HT            0.417         1.008       0
   12890 TIP3 4216 TIP3 H2   HT            0.417         1.008       0
   12891 TIP3 4217 TIP3 OH2  OT           -0.834       15.9994       0
   12892 TIP3 4217 TIP3 H1   HT            0.417         1.008       0
   12893 TIP3 4217 TIP3 H2   HT            0.417         1.008       0
   12894 TIP3 4218 TIP3 OH2  OT           -0.834       15.9994       0
   12895 TIP3 4218 TIP3 H1   HT            0.417         1.008       0
   12896 TIP3 4218 TIP3 H2   HT            0.417         1.008       0
   12897 TIP3 4219 TIP3 OH2  OT           -0.834       15.9994       0
   12898 TIP3 4219 TIP3 H1   HT            0.417         1.008       0
   12899 TIP3 4219 TIP3 H2   HT            0.417         1.008       0
   12900 TIP3 4220 TIP3 OH2  OT           -0.834       15.9994       0
   12901 TIP3 4220 TIP3 H1   HT            0.417         1.008       0
   12902 TIP3 4220 TIP3 H2   HT            0.417         1.008       0
   12903 TIP3 4221 TIP3 OH2  OT           -0.834       15.9994       0
   12904 TIP3 4221 TIP3 H1   HT            0.417         1.008       0
   12905 TIP3 4221 TIP3 H2   HT            0.417         1.008       0
   12906 TIP3 4222 TIP3 OH2  OT           -0.834       15.9994       0
   12907 TIP3 4222 TIP3 H1   HT            0.417         1.008       0
   12908 TIP3 4222 TIP3 H2   HT            0.417         1.008       0
   12909 TIP3 4223 TIP3 OH2  OT           -0.834       15.9994       0
   12910 TIP3 4223 TIP3 H1   HT            0.417         1.008       0
   12911 TIP3 4223 TIP3 H2   HT            0.417         1.008       0
   12912 TIP3 4224 TIP3 OH2  OT           -0.834       15.9994       0
   12913 TIP3 4224 TIP3 H1   HT            0.417         1.008       0
   12914 TIP3 4224 TIP3 H2   HT            0.417         1.008       0
   12915 TIP3 4225 TIP3 OH2  OT           -0.834       15.9994       0
   12916 TIP3 4225 TIP3 H1   HT            0.417         1.008       0
   12917 TIP3 4225 TIP3 H2   HT            0.417         1.008       0
   12918 TIP3 4226 TIP3 OH2  OT           -0.834       15.9994       0
   12919 TIP3 4226 TIP3 H1   HT            0.417         1.008       0
   12920 TIP3 4226 TIP3 H2   HT            0.417         1.008       0
   12921 TIP3 4227 TIP3 OH2  OT           -0.834       15.9994       0
   12922 TIP3 4227 TIP3 H1   HT            0.417         1.008       0
   12923 TIP3 4227 TIP3 H2   HT            0.417         1.008       0
   12924 TIP3 4228 TIP3 OH2  OT           -0.834       15.9994       0
   12925 TIP3 4228 TIP3 H1   HT            0.417         1.008       0
   12926 TIP3 4228 TIP3 H2   HT            0.417         1.008       0
   12927 TIP3 4229 TIP3 OH2  OT           -0.834       15.9994       0
   12928 TIP3 4229 TIP3 H1   HT            0.417         1.008       0
   12929 TIP3 4229 TIP3 H2   HT            0.417         1.008       0
   12930 TIP3 4230 TIP3 OH2  OT           -0.834       15.9994       0
   12931 TIP3 4230 TIP3 H1   HT            0.417         1.008       0
   12932 TIP3 4230 TIP3 H2   HT            0.417         1.008       0
   12933 TIP3 4231 TIP3 OH2  OT           -0.834       15.9994       0
   12934 TIP3 4231 TIP3 H1   HT            0.417         1.008       0
   12935 TIP3 4231 TIP3 H2   HT            0.417         1.008       0
   12936 TIP3 4232 TIP3 OH2  OT           -0.834       15.9994       0
   12937 TIP3 4232 TIP3 H1   HT            0.417         1.008       0
   12938 TIP3 4232 TIP3 H2   HT            0.417         1.008       0
   12939 TIP3 4233 TIP3 OH2  OT           -0.834       15.9994       0
   12940 TIP3 4233 TIP3 H1   HT            0.417         1.008       0
   12941 TIP3 4233 TIP3 H2   HT            0.417         1.008       0
   12942 TIP3 4234 TIP3 OH2  OT           -0.834       15.9994       0
   12943 TIP3 4234 TIP3 H1   HT            0.417         1.008       0
   12944 TIP3 4234 TIP3 H2   HT            0.417         1.008       0
   12945 TIP3 4235 TIP3 OH2  OT           -0.834       15.9994       0
   12946 TIP3 4235 TIP3 H1   HT            0.417         1.008       0
   12947 TIP3 4235 TIP3 H2   HT            0.417         1.008       0
   12948 TIP3 4236 TIP3 OH2  OT           -0.834       15.9994       0
   12949 TIP3 4236 TIP3 H1   HT            0.417         1.008       0
   12950 TIP3 4236 TIP3 H2   HT            0.417         1.008       0
   12951 TIP3 4237 TIP3 OH2  OT           -0.834       15.9994       0
   12952 TIP3 4237 TIP3 H1   HT            0.417         1.008       0
   12953 TIP3 4237 TIP3 H2   HT            0.417         1.008       0
   12954 TIP3 4238 TIP3 OH2  OT           -0.834       15.9994       0
   12955 TIP3 4238 TIP3 H1   HT            0.417         1.008       0
   12956 TIP3 4238 TIP3 H2   HT            0.417         1.008       0
   12957 TIP3 4239 TIP3 OH2  OT           -0.834       15.9994       0
   12958 TIP3 4239 TIP3 H1   HT            0.417         1.008       0
   12959 TIP3 4239 TIP3 H2   HT            0.417         1.008       0
   12960 TIP3 4240 TIP3 OH2  OT           -0.834       15.9994       0
   12961 TIP3 4240 TIP3 H1   HT            0.417         1.008       0
   12962 TIP3 4240 TIP3 H2   HT            0.417         1.008       0
   12963 TIP3 4241 TIP3 OH2  OT           -0.834       15.9994       0
   12964 TIP3 4241 TIP3 H1   HT            0.417         1.008       0
   12965 TIP3 4241 TIP3 H2   HT            0.417         1.008       0
   12966 TIP3 4242 TIP3 OH2  OT           -0.834       15.9994       0
   12967 TIP3 4242 TIP3 H1   HT            0.417         1.008       0
   12968 TIP3 4242 TIP3 H2   HT            0.417         1.008       0
   12969 TIP3 4243 TIP3 OH2  OT           -0.834       15.9994       0
   12970 TIP3 4243 TIP3 H1   HT            0.417         1.008       0
   12971 TIP3 4243 TIP3 H2   HT            0.417         1.008       0
   12972 TIP3 4244 TIP3 OH2  OT           -0.834       15.9994       0
   12973 TIP3 4244 TIP3 H1   HT            0.417         1.008       0
   12974 TIP3 4244 TIP3 H2   HT            0.417         1.008       0
   12975 TIP3 4245 TIP3 OH2  OT           -0.834       15.9994       0
   12976 TIP3 4245 TIP3 H1   HT            0.417         1.008       0
   12977 TIP3 4245 TIP3 H2   HT            0.417         1.008       0
   12978 TIP3 4246 TIP3 OH2  OT           -0.834       15.9994       0
   12979 TIP3 4246 TIP3 H1   HT            0.417         1.008       0
   12980 TIP3 4246 TIP3 H2   HT            0.417         1.008       0
   12981 TIP3 4247 TIP3 OH2  OT           -0.834       15.9994       0
   12982 TIP3 4247 TIP3 H1   HT            0.417         1.008       0
   12983 TIP3 4247 TIP3 H2   HT            0.417         1.008       0
   12984 TIP3 4248 TIP3 OH2  OT           -0.834       15.9994       0
   12985 TIP3 4248 TIP3 H1   HT            0.417         1.008       0
   12986 TIP3 4248 TIP3 H2   HT            0.417         1.008       0
   12987 TIP3 4249 TIP3 OH2  OT           -0.834       15.9994       0
   12988 TIP3 4249 TIP3 H1   HT            0.417         1.008       0
   12989 TIP3 4249 TIP3 H2   HT            0.417         1.008       0
   12990 TIP3 4250 TIP3 OH2  OT           -0.834       15.9994       0
   12991 TIP3 4250 TIP3 H1   HT            0.417         1.008       0
   12992 TIP3 4250 TIP3 H2   HT            0.417         1.008       0
   12993 TIP3 4251 TIP3 OH2  OT           -0.834       15.9994       0
   12994 TIP3 4251 TIP3 H1   HT            0.417         1.008       0
   12995 TIP3 4251 TIP3 H2   HT            0.417         1.008       0
   12996 TIP3 4252 TIP3 OH2  OT           -0.834       15.9994       0
   12997 TIP3 4252 TIP3 H1   HT            0.417         1.008       0
   12998 TIP3 4252 TIP3 H2   HT            0.417         1.008       0
   12999 TIP3 4253 TIP3 OH2  OT           -0.834       15.9994       0
   13000 TIP3 4253 TIP3 H1   HT            0.417         1.008       0
   13001 TIP3 4253 TIP3 H2   HT            0.417         1.008       0
   13002 TIP3 4254 TIP3 OH2  OT           -0.834       15.9994       0
   13003 TIP3 4254 TIP3 H1   HT            0.417         1.008       0
   13004 TIP3 4254 TIP3 H2   HT            0.417         1.008       0
   13005 TIP3 4255 TIP3 OH2  OT           -0.834       15.9994       0
   13006 TIP3 4255 TIP3 H1   HT            0.417         1.008       0
   13007 TIP3 4255 TIP3 H2   HT            0.417         1.008       0
   13008 TIP3 4256 TIP3 OH2  OT           -0.834       15.9994       0
   13009 TIP3 4256 TIP3 H1   HT            0.417         1.008       0
   13010 TIP3 4256 TIP3 H2   HT            0.417         1.008       0
   13011 TIP3 4257 TIP3 OH2  OT           -0.834       15.9994       0
   13012 TIP3 4257 TIP3 H1   HT            0.417         1.008       0
   13013 TIP3 4257 TIP3 H2   HT            0.417         1.008       0
   13014 TIP3 4258 TIP3 OH2  OT           -0.834       15.9994       0
   13015 TIP3 4258 TIP3 H1   HT            0.417         1.008       0
   13016 TIP3 4258 TIP3 H2   HT            0.417         1.008       0
   13017 TIP3 4259 TIP3 OH2  OT           -0.834       15.9994       0
   13018 TIP3 4259 TIP3 H1   HT            0.417         1.008       0
   13019 TIP3 4259 TIP3 H2   HT            0.417         1.008       0
   13020 TIP3 4260 TIP3 OH2  OT           -0.834       15.9994       0
   13021 TIP3 4260 TIP3 H1   HT            0.417         1.008       0
   13022 TIP3 4260 TIP3 H2   HT            0.417         1.008       0
   13023 TIP3 4261 TIP3 OH2  OT           -0.834       15.9994       0
   13024 TIP3 4261 TIP3 H1   HT            0.417         1.008       0
   13025 TIP3 4261 TIP3 H2   HT            0.417         1.008       0
   13026 TIP3 4262 TIP3 OH2  OT           -0.834       15.9994       0
   13027 TIP3 4262 TIP3 H1   HT            0.417         1.008       0
   13028 TIP3 4262 TIP3 H2   HT            0.417         1.008       0
   13029 TIP3 4263 TIP3 OH2  OT           -0.834       15.9994       0
   13030 TIP3 4263 TIP3 H1   HT            0.417         1.008       0
   13031 TIP3 4263 TIP3 H2   HT            0.417         1.008       0
   13032 TIP3 4264 TIP3 OH2  OT           -0.834       15.9994       0
   13033 TIP3 4264 TIP3 H1   HT            0.417         1.008       0
   13034 TIP3 4264 TIP3 H2   HT            0.417         1.008       0
   13035 TIP3 4265 TIP3 OH2  OT           -0.834       15.9994       0
   13036 TIP3 4265 TIP3 H1   HT            0.417         1.008       0
   13037 TIP3 4265 TIP3 H2   HT            0.417         1.008       0
   13038 TIP3 4266 TIP3 OH2  OT           -0.834       15.9994       0
   13039 TIP3 4266 TIP3 H1   HT            0.417         1.008       0
   13040 TIP3 4266 TIP3 H2   HT            0.417         1.008       0
   13041 TIP3 4267 TIP3 OH2  OT           -0.834       15.9994       0
   13042 TIP3 4267 TIP3 H1   HT            0.417         1.008       0
   13043 TIP3 4267 TIP3 H2   HT            0.417         1.008       0
   13044 TIP3 4268 TIP3 OH2  OT           -0.834       15.9994       0
   13045 TIP3 4268 TIP3 H1   HT            0.417         1.008       0
   13046 TIP3 4268 TIP3 H2   HT            0.417         1.008       0
   13047 TIP3 4269 TIP3 OH2  OT           -0.834       15.9994       0
   13048 TIP3 4269 TIP3 H1   HT            0.417         1.008       0
   13049 TIP3 4269 TIP3 H2   HT            0.417         1.008       0
   13050 TIP3 4270 TIP3 OH2  OT           -0.834       15.9994       0
   13051 TIP3 4270 TIP3 H1   HT            0.417         1.008       0
   13052 TIP3 4270 TIP3 H2   HT            0.417         1.008       0
   13053 TIP3 4271 TIP3 OH2  OT           -0.834       15.9994       0
   13054 TIP3 4271 TIP3 H1   HT            0.417         1.008       0
   13055 TIP3 4271 TIP3 H2   HT            0.417         1.008       0
   13056 TIP3 4272 TIP3 OH2  OT           -0.834       15.9994       0
   13057 TIP3 4272 TIP3 H1   HT            0.417         1.008       0
   13058 TIP3 4272 TIP3 H2   HT            0.417         1.008       0
   13059 TIP3 4273 TIP3 OH2  OT           -0.834       15.9994       0
   13060 TIP3 4273 TIP3 H1   HT            0.417         1.008       0
   13061 TIP3 4273 TIP3 H2   HT            0.417         1.008       0
   13062 TIP3 4274 TIP3 OH2  OT           -0.834       15.9994       0
   13063 TIP3 4274 TIP3 H1   HT            0.417         1.008       0
   13064 TIP3 4274 TIP3 H2   HT            0.417         1.008       0
   13065 TIP3 4275 TIP3 OH2  OT           -0.834       15.9994       0
   13066 TIP3 4275 TIP3 H1   HT            0.417         1.008       0
   13067 TIP3 4275 TIP3 H2   HT            0.417         1.008       0
   13068 TIP3 4276 TIP3 OH2  OT           -0.834       15.9994       0
   13069 TIP3 4276 TIP3 H1   HT            0.417         1.008       0
   13070 TIP3 4276 TIP3 H2   HT            0.417         1.008       0
   13071 TIP3 4277 TIP3 OH2  OT           -0.834       15.9994       0
   13072 TIP3 4277 TIP3 H1   HT            0.417         1.008       0
   13073 TIP3 4277 TIP3 H2   HT            0.417         1.008       0
   13074 TIP3 4278 TIP3 OH2  OT           -0.834       15.9994       0
   13075 TIP3 4278 TIP3 H1   HT            0.417         1.008       0
   13076 TIP3 4278 TIP3 H2   HT            0.417         1.008       0
   13077 TIP3 4279 TIP3 OH2  OT           -0.834       15.9994       0
   13078 TIP3 4279 TIP3 H1   HT            0.417         1.008       0
   13079 TIP3 4279 TIP3 H2   HT            0.417         1.008       0
   13080 TIP3 4280 TIP3 OH2  OT           -0.834       15.9994       0
   13081 TIP3 4280 TIP3 H1   HT            0.417         1.008       0
   13082 TIP3 4280 TIP3 H2   HT            0.417         1.008       0
   13083 TIP3 4281 TIP3 OH2  OT           -0.834       15.9994       0
   13084 TIP3 4281 TIP3 H1   HT            0.417         1.008       0
   13085 TIP3 4281 TIP3 H2   HT            0.417         1.008       0
   13086 TIP3 4282 TIP3 OH2  OT           -0.834       15.9994       0
   13087 TIP3 4282 TIP3 H1   HT            0.417         1.008       0
   13088 TIP3 4282 TIP3 H2   HT            0.417         1.008       0
   13089 TIP3 4283 TIP3 OH2  OT           -0.834       15.9994       0
   13090 TIP3 4283 TIP3 H1   HT            0.417         1.008       0
   13091 TIP3 4283 TIP3 H2   HT            0.417         1.008       0
   13092 TIP3 4284 TIP3 OH2  OT           -0.834       15.9994       0
   13093 TIP3 4284 TIP3 H1   HT            0.417         1.008       0
   13094 TIP3 4284 TIP3 H2   HT            0.417         1.008       0
   13095 TIP3 4285 TIP3 OH2  OT           -0.834       15.9994       0
   13096 TIP3 4285 TIP3 H1   HT            0.417         1.008       0
   13097 TIP3 4285 TIP3 H2   HT            0.417         1.008       0
   13098 TIP3 4286 TIP3 OH2  OT           -0.834       15.9994       0
   13099 TIP3 4286 TIP3 H1   HT            0.417         1.008       0
   13100 TIP3 4286 TIP3 H2   HT            0.417         1.008       0
   13101 TIP3 4287 TIP3 OH2  OT           -0.834       15.9994       0
   13102 TIP3 4287 TIP3 H1   HT            0.417         1.008       0
   13103 TIP3 4287 TIP3 H2   HT            0.417         1.008       0
   13104 TIP3 4288 TIP3 OH2  OT           -0.834       15.9994       0
   13105 TIP3 4288 TIP3 H1   HT            0.417         1.008       0
   13106 TIP3 4288 TIP3 H2   HT            0.417         1.008       0
   13107 TIP3 4289 TIP3 OH2  OT           -0.834       15.9994       0
   13108 TIP3 4289 TIP3 H1   HT            0.417         1.008       0
   13109 TIP3 4289 TIP3 H2   HT            0.417         1.008       0
   13110 TIP3 4290 TIP3 OH2  OT           -0.834       15.9994       0
   13111 TIP3 4290 TIP3 H1   HT            0.417         1.008       0
   13112 TIP3 4290 TIP3 H2   HT            0.417         1.008       0
   13113 TIP3 4291 TIP3 OH2  OT           -0.834       15.9994       0
   13114 TIP3 4291 TIP3 H1   HT            0.417         1.008       0
   13115 TIP3 4291 TIP3 H2   HT            0.417         1.008       0
   13116 TIP3 4292 TIP3 OH2  OT           -0.834       15.9994       0
   13117 TIP3 4292 TIP3 H1   HT            0.417         1.008       0
   13118 TIP3 4292 TIP3 H2   HT            0.417         1.008       0
   13119 TIP3 4293 TIP3 OH2  OT           -0.834       15.9994       0
   13120 TIP3 4293 TIP3 H1   HT            0.417         1.008       0
   13121 TIP3 4293 TIP3 H2   HT            0.417         1.008       0
   13122 TIP3 4294 TIP3 OH2  OT           -0.834       15.9994       0
   13123 TIP3 4294 TIP3 H1   HT            0.417         1.008       0
   13124 TIP3 4294 TIP3 H2   HT            0.417         1.008       0
   13125 TIP3 4295 TIP3 OH2  OT           -0.834       15.9994       0
   13126 TIP3 4295 TIP3 H1   HT            0.417         1.008       0
   13127 TIP3 4295 TIP3 H2   HT            0.417         1.008       0
   13128 TIP3 4296 TIP3 OH2  OT           -0.834       15.9994       0
   13129 TIP3 4296 TIP3 H1   HT            0.417         1.008       0
   13130 TIP3 4296 TIP3 H2   HT            0.417         1.008       0
   13131 TIP3 4297 TIP3 OH2  OT           -0.834       15.9994       0
   13132 TIP3 4297 TIP3 H1   HT            0.417         1.008       0
   13133 TIP3 4297 TIP3 H2   HT            0.417         1.008       0
   13134 TIP3 4298 TIP3 OH2  OT           -0.834       15.9994       0
   13135 TIP3 4298 TIP3 H1   HT            0.417         1.008       0
   13136 TIP3 4298 TIP3 H2   HT            0.417         1.008       0
   13137 TIP3 4299 TIP3 OH2  OT           -0.834       15.9994       0
   13138 TIP3 4299 TIP3 H1   HT            0.417         1.008       0
   13139 TIP3 4299 TIP3 H2   HT            0.417         1.008       0
   13140 TIP3 4300 TIP3 OH2  OT           -0.834       15.9994       0
   13141 TIP3 4300 TIP3 H1   HT            0.417         1.008       0
   13142 TIP3 4300 TIP3 H2   HT            0.417         1.008       0
   13143 TIP3 4301 TIP3 OH2  OT           -0.834       15.9994       0
   13144 TIP3 4301 TIP3 H1   HT            0.417         1.008       0
   13145 TIP3 4301 TIP3 H2   HT            0.417         1.008       0
   13146 TIP3 4302 TIP3 OH2  OT           -0.834       15.9994       0
   13147 TIP3 4302 TIP3 H1   HT            0.417         1.008       0
   13148 TIP3 4302 TIP3 H2   HT            0.417         1.008       0
   13149 TIP3 4303 TIP3 OH2  OT           -0.834       15.9994       0
   13150 TIP3 4303 TIP3 H1   HT            0.417         1.008       0
   13151 TIP3 4303 TIP3 H2   HT            0.417         1.008       0
   13152 TIP3 4304 TIP3 OH2  OT           -0.834       15.9994       0
   13153 TIP3 4304 TIP3 H1   HT            0.417         1.008       0
   13154 TIP3 4304 TIP3 H2   HT            0.417         1.008       0
   13155 TIP3 4305 TIP3 OH2  OT           -0.834       15.9994       0
   13156 TIP3 4305 TIP3 H1   HT            0.417         1.008       0
   13157 TIP3 4305 TIP3 H2   HT            0.417         1.008       0
   13158 TIP3 4306 TIP3 OH2  OT           -0.834       15.9994       0
   13159 TIP3 4306 TIP3 H1   HT            0.417         1.008       0
   13160 TIP3 4306 TIP3 H2   HT            0.417         1.008       0
   13161 TIP3 4307 TIP3 OH2  OT           -0.834       15.9994       0
   13162 TIP3 4307 TIP3 H1   HT            0.417         1.008       0
   13163 TIP3 4307 TIP3 H2   HT            0.417         1.008       0
   13164 TIP3 4308 TIP3 OH2  OT           -0.834       15.9994       0
   13165 TIP3 4308 TIP3 H1   HT            0.417         1.008       0
   13166 TIP3 4308 TIP3 H2   HT            0.417         1.008       0
   13167 TIP3 4309 TIP3 OH2  OT           -0.834       15.9994       0
   13168 TIP3 4309 TIP3 H1   HT            0.417         1.008       0
   13169 TIP3 4309 TIP3 H2   HT            0.417         1.008       0
   13170 TIP3 4310 TIP3 OH2  OT           -0.834       15.9994       0
   13171 TIP3 4310 TIP3 H1   HT            0.417         1.008       0
   13172 TIP3 4310 TIP3 H2   HT            0.417         1.008       0
   13173 TIP3 4311 TIP3 OH2  OT           -0.834       15.9994       0
   13174 TIP3 4311 TIP3 H1   HT            0.417         1.008       0
   13175 TIP3 4311 TIP3 H2   HT            0.417         1.008       0
   13176 TIP3 4312 TIP3 OH2  OT           -0.834       15.9994       0
   13177 TIP3 4312 TIP3 H1   HT            0.417         1.008       0
   13178 TIP3 4312 TIP3 H2   HT            0.417         1.008       0
   13179 TIP3 4313 TIP3 OH2  OT           -0.834       15.9994       0
   13180 TIP3 4313 TIP3 H1   HT            0.417         1.008       0
   13181 TIP3 4313 TIP3 H2   HT            0.417         1.008       0
   13182 TIP3 4314 TIP3 OH2  OT           -0.834       15.9994       0
   13183 TIP3 4314 TIP3 H1   HT            0.417         1.008       0
   13184 TIP3 4314 TIP3 H2   HT            0.417         1.008       0
   13185 TIP3 4315 TIP3 OH2  OT           -0.834       15.9994       0
   13186 TIP3 4315 TIP3 H1   HT            0.417         1.008       0
   13187 TIP3 4315 TIP3 H2   HT            0.417         1.008       0
   13188 TIP3 4316 TIP3 OH2  OT           -0.834       15.9994       0
   13189 TIP3 4316 TIP3 H1   HT            0.417         1.008       0
   13190 TIP3 4316 TIP3 H2   HT            0.417         1.008       0
   13191 TIP3 4317 TIP3 OH2  OT           -0.834       15.9994       0
   13192 TIP3 4317 TIP3 H1   HT            0.417         1.008       0
   13193 TIP3 4317 TIP3 H2   HT            0.417         1.008       0
   13194 TIP3 4318 TIP3 OH2  OT           -0.834       15.9994       0
   13195 TIP3 4318 TIP3 H1   HT            0.417         1.008       0
   13196 TIP3 4318 TIP3 H2   HT            0.417         1.008       0
   13197 TIP3 4319 TIP3 OH2  OT           -0.834       15.9994       0
   13198 TIP3 4319 TIP3 H1   HT            0.417         1.008       0
   13199 TIP3 4319 TIP3 H2   HT            0.417         1.008       0
   13200 TIP3 4320 TIP3 OH2  OT           -0.834       15.9994       0
   13201 TIP3 4320 TIP3 H1   HT            0.417         1.008       0
   13202 TIP3 4320 TIP3 H2   HT            0.417         1.008       0
   13203 TIP3 4321 TIP3 OH2  OT           -0.834       15.9994       0
   13204 TIP3 4321 TIP3 H1   HT            0.417         1.008       0
   13205 TIP3 4321 TIP3 H2   HT            0.417         1.008       0
   13206 TIP3 4322 TIP3 OH2  OT           -0.834       15.9994       0
   13207 TIP3 4322 TIP3 H1   HT            0.417         1.008       0
   13208 TIP3 4322 TIP3 H2   HT            0.417         1.008       0
   13209 TIP3 4323 TIP3 OH2  OT           -0.834       15.9994       0
   13210 TIP3 4323 TIP3 H1   HT            0.417         1.008       0
   13211 TIP3 4323 TIP3 H2   HT            0.417         1.008       0
   13212 TIP3 4324 TIP3 OH2  OT           -0.834       15.9994       0
   13213 TIP3 4324 TIP3 H1   HT            0.417         1.008       0
   13214 TIP3 4324 TIP3 H2   HT            0.417         1.008       0
   13215 TIP3 4325 TIP3 OH2  OT           -0.834       15.9994       0
   13216 TIP3 4325 TIP3 H1   HT            0.417         1.008       0
   13217 TIP3 4325 TIP3 H2   HT            0.417         1.008       0
   13218 TIP3 4326 TIP3 OH2  OT           -0.834       15.9994       0
   13219 TIP3 4326 TIP3 H1   HT            0.417         1.008       0
   13220 TIP3 4326 TIP3 H2   HT            0.417         1.008       0
   13221 TIP3 4327 TIP3 OH2  OT           -0.834       15.9994       0
   13222 TIP3 4327 TIP3 H1   HT            0.417         1.008       0
   13223 TIP3 4327 TIP3 H2   HT            0.417         1.008       0
   13224 TIP3 4328 TIP3 OH2  OT           -0.834       15.9994       0
   13225 TIP3 4328 TIP3 H1   HT            0.417         1.008       0
   13226 TIP3 4328 TIP3 H2   HT            0.417         1.008       0
   13227 TIP3 4329 TIP3 OH2  OT           -0.834       15.9994       0
   13228 TIP3 4329 TIP3 H1   HT            0.417         1.008       0
   13229 TIP3 4329 TIP3 H2   HT            0.417         1.008       0
   13230 TIP3 4330 TIP3 OH2  OT           -0.834       15.9994       0
   13231 TIP3 4330 TIP3 H1   HT            0.417         1.008       0
   13232 TIP3 4330 TIP3 H2   HT            0.417         1.008       0
   13233 TIP3 4331 TIP3 OH2  OT           -0.834       15.9994       0
   13234 TIP3 4331 TIP3 H1   HT            0.417         1.008       0
   13235 TIP3 4331 TIP3 H2   HT            0.417         1.008       0
   13236 TIP3 4332 TIP3 OH2  OT           -0.834       15.9994       0
   13237 TIP3 4332 TIP3 H1   HT            0.417         1.008       0
   13238 TIP3 4332 TIP3 H2   HT            0.417         1.008       0
   13239 TIP3 4333 TIP3 OH2  OT           -0.834       15.9994       0
   13240 TIP3 4333 TIP3 H1   HT            0.417         1.008       0
   13241 TIP3 4333 TIP3 H2   HT            0.417         1.008       0
   13242 TIP3 4334 TIP3 OH2  OT           -0.834       15.9994       0
   13243 TIP3 4334 TIP3 H1   HT            0.417         1.008       0
   13244 TIP3 4334 TIP3 H2   HT            0.417         1.008       0
   13245 TIP3 4335 TIP3 OH2  OT           -0.834       15.9994       0
   13246 TIP3 4335 TIP3 H1   HT            0.417         1.008       0
   13247 TIP3 4335 TIP3 H2   HT            0.417         1.008       0
   13248 TIP3 4336 TIP3 OH2  OT           -0.834       15.9994       0
   13249 TIP3 4336 TIP3 H1   HT            0.417         1.008       0
   13250 TIP3 4336 TIP3 H2   HT            0.417         1.008       0
   13251 TIP3 4337 TIP3 OH2  OT           -0.834       15.9994       0
   13252 TIP3 4337 TIP3 H1   HT            0.417         1.008       0
   13253 TIP3 4337 TIP3 H2   HT            0.417         1.008       0
   13254 TIP3 4338 TIP3 OH2  OT           -0.834       15.9994       0
   13255 TIP3 4338 TIP3 H1   HT            0.417         1.008       0
   13256 TIP3 4338 TIP3 H2   HT            0.417         1.008       0
   13257 TIP3 4339 TIP3 OH2  OT           -0.834       15.9994       0
   13258 TIP3 4339 TIP3 H1   HT            0.417         1.008       0
   13259 TIP3 4339 TIP3 H2   HT            0.417         1.008       0
   13260 TIP3 4340 TIP3 OH2  OT           -0.834       15.9994       0
   13261 TIP3 4340 TIP3 H1   HT            0.417         1.008       0
   13262 TIP3 4340 TIP3 H2   HT            0.417         1.008       0
   13263 TIP3 4341 TIP3 OH2  OT           -0.834       15.9994       0
   13264 TIP3 4341 TIP3 H1   HT            0.417         1.008       0
   13265 TIP3 4341 TIP3 H2   HT            0.417         1.008       0
   13266 TIP3 4342 TIP3 OH2  OT           -0.834       15.9994       0
   13267 TIP3 4342 TIP3 H1   HT            0.417         1.008       0
   13268 TIP3 4342 TIP3 H2   HT            0.417         1.008       0
   13269 TIP3 4343 TIP3 OH2  OT           -0.834       15.9994       0
   13270 TIP3 4343 TIP3 H1   HT            0.417         1.008       0
   13271 TIP3 4343 TIP3 H2   HT            0.417         1.008       0
   13272 TIP3 4344 TIP3 OH2  OT           -0.834       15.9994       0
   13273 TIP3 4344 TIP3 H1   HT            0.417         1.008       0
   13274 TIP3 4344 TIP3 H2   HT            0.417         1.008       0
   13275 TIP3 4345 TIP3 OH2  OT           -0.834       15.9994       0
   13276 TIP3 4345 TIP3 H1   HT            0.417         1.008       0
   13277 TIP3 4345 TIP3 H2   HT            0.417         1.008       0
   13278 TIP3 4346 TIP3 OH2  OT           -0.834       15.9994       0
   13279 TIP3 4346 TIP3 H1   HT            0.417         1.008       0
   13280 TIP3 4346 TIP3 H2   HT            0.417         1.008       0
   13281 TIP3 4347 TIP3 OH2  OT           -0.834       15.9994       0
   13282 TIP3 4347 TIP3 H1   HT            0.417         1.008       0
   13283 TIP3 4347 TIP3 H2   HT            0.417         1.008       0
   13284 TIP3 4348 TIP3 OH2  OT           -0.834       15.9994       0
   13285 TIP3 4348 TIP3 H1   HT            0.417         1.008       0
   13286 TIP3 4348 TIP3 H2   HT            0.417         1.008       0
   13287 TIP3 4349 TIP3 OH2  OT           -0.834       15.9994       0
   13288 TIP3 4349 TIP3 H1   HT            0.417         1.008       0
   13289 TIP3 4349 TIP3 H2   HT            0.417         1.008       0
   13290 TIP3 4350 TIP3 OH2  OT           -0.834       15.9994       0
   13291 TIP3 4350 TIP3 H1   HT            0.417         1.008       0
   13292 TIP3 4350 TIP3 H2   HT            0.417         1.008       0
   13293 TIP3 4351 TIP3 OH2  OT           -0.834       15.9994       0
   13294 TIP3 4351 TIP3 H1   HT            0.417         1.008       0
   13295 TIP3 4351 TIP3 H2   HT            0.417         1.008       0
   13296 TIP3 4352 TIP3 OH2  OT           -0.834       15.9994       0
   13297 TIP3 4352 TIP3 H1   HT            0.417         1.008       0
   13298 TIP3 4352 TIP3 H2   HT            0.417         1.008       0
   13299 TIP3 4353 TIP3 OH2  OT           -0.834       15.9994       0
   13300 TIP3 4353 TIP3 H1   HT            0.417         1.008       0
   13301 TIP3 4353 TIP3 H2   HT            0.417         1.008       0
   13302 TIP3 4354 TIP3 OH2  OT           -0.834       15.9994       0
   13303 TIP3 4354 TIP3 H1   HT            0.417         1.008       0
   13304 TIP3 4354 TIP3 H2   HT            0.417         1.008       0
   13305 TIP3 4355 TIP3 OH2  OT           -0.834       15.9994       0
   13306 TIP3 4355 TIP3 H1   HT            0.417         1.008       0
   13307 TIP3 4355 TIP3 H2   HT            0.417         1.008       0
   13308 TIP3 4356 TIP3 OH2  OT           -0.834       15.9994       0
   13309 TIP3 4356 TIP3 H1   HT            0.417         1.008       0
   13310 TIP3 4356 TIP3 H2   HT            0.417         1.008       0
   13311 TIP3 4357 TIP3 OH2  OT           -0.834       15.9994       0
   13312 TIP3 4357 TIP3 H1   HT            0.417         1.008       0
   13313 TIP3 4357 TIP3 H2   HT            0.417         1.008       0
   13314 TIP3 4358 TIP3 OH2  OT           -0.834       15.9994       0
   13315 TIP3 4358 TIP3 H1   HT            0.417         1.008       0
   13316 TIP3 4358 TIP3 H2   HT            0.417         1.008       0
   13317 TIP3 4359 TIP3 OH2  OT           -0.834       15.9994       0
   13318 TIP3 4359 TIP3 H1   HT            0.417         1.008       0
   13319 TIP3 4359 TIP3 H2   HT            0.417         1.008       0
   13320 TIP3 4360 TIP3 OH2  OT           -0.834       15.9994       0
   13321 TIP3 4360 TIP3 H1   HT            0.417         1.008       0
   13322 TIP3 4360 TIP3 H2   HT            0.417         1.008       0
   13323 TIP3 4361 TIP3 OH2  OT           -0.834       15.9994       0
   13324 TIP3 4361 TIP3 H1   HT            0.417         1.008       0
   13325 TIP3 4361 TIP3 H2   HT            0.417         1.008       0
   13326 TIP3 4362 TIP3 OH2  OT           -0.834       15.9994       0
   13327 TIP3 4362 TIP3 H1   HT            0.417         1.008       0
   13328 TIP3 4362 TIP3 H2   HT            0.417         1.008       0
   13329 TIP3 4363 TIP3 OH2  OT           -0.834       15.9994       0
   13330 TIP3 4363 TIP3 H1   HT            0.417         1.008       0
   13331 TIP3 4363 TIP3 H2   HT            0.417         1.008       0
   13332 TIP3 4364 TIP3 OH2  OT           -0.834       15.9994       0
   13333 TIP3 4364 TIP3 H1   HT            0.417         1.008       0
   13334 TIP3 4364 TIP3 H2   HT            0.417         1.008       0
   13335 TIP3 4365 TIP3 OH2  OT           -0.834       15.9994       0
   13336 TIP3 4365 TIP3 H1   HT            0.417         1.008       0
   13337 TIP3 4365 TIP3 H2   HT            0.417         1.008       0
   13338 TIP3 4366 TIP3 OH2  OT           -0.834       15.9994       0
   13339 TIP3 4366 TIP3 H1   HT            0.417         1.008       0
   13340 TIP3 4366 TIP3 H2   HT            0.417         1.008       0
   13341 TIP3 4367 TIP3 OH2  OT           -0.834       15.9994       0
   13342 TIP3 4367 TIP3 H1   HT            0.417         1.008       0
   13343 TIP3 4367 TIP3 H2   HT            0.417         1.008       0
   13344 TIP3 4368 TIP3 OH2  OT           -0.834       15.9994       0
   13345 TIP3 4368 TIP3 H1   HT            0.417         1.008       0
   13346 TIP3 4368 TIP3 H2   HT            0.417         1.008       0
   13347 TIP3 4369 TIP3 OH2  OT           -0.834       15.9994       0
   13348 TIP3 4369 TIP3 H1   HT            0.417         1.008       0
   13349 TIP3 4369 TIP3 H2   HT            0.417         1.008       0
   13350 TIP3 4370 TIP3 OH2  OT           -0.834       15.9994       0
   13351 TIP3 4370 TIP3 H1   HT            0.417         1.008       0
   13352 TIP3 4370 TIP3 H2   HT            0.417         1.008       0
   13353 TIP3 4371 TIP3 OH2  OT           -0.834       15.9994       0
   13354 TIP3 4371 TIP3 H1   HT            0.417         1.008       0
   13355 TIP3 4371 TIP3 H2   HT            0.417         1.008       0
   13356 TIP3 4372 TIP3 OH2  OT           -0.834       15.9994       0
   13357 TIP3 4372 TIP3 H1   HT            0.417         1.008       0
   13358 TIP3 4372 TIP3 H2   HT            0.417         1.008       0
   13359 TIP3 4373 TIP3 OH2  OT           -0.834       15.9994       0
   13360 TIP3 4373 TIP3 H1   HT            0.417         1.008       0
   13361 TIP3 4373 TIP3 H2   HT            0.417         1.008       0
   13362 TIP3 4374 TIP3 OH2  OT           -0.834       15.9994       0
   13363 TIP3 4374 TIP3 H1   HT            0.417         1.008       0
   13364 TIP3 4374 TIP3 H2   HT            0.417         1.008       0
   13365 TIP3 4375 TIP3 OH2  OT           -0.834       15.9994       0
   13366 TIP3 4375 TIP3 H1   HT            0.417         1.008       0
   13367 TIP3 4375 TIP3 H2   HT            0.417         1.008       0
   13368 TIP3 4376 TIP3 OH2  OT           -0.834       15.9994       0
   13369 TIP3 4376 TIP3 H1   HT            0.417         1.008       0
   13370 TIP3 4376 TIP3 H2   HT            0.417         1.008       0
   13371 TIP3 4377 TIP3 OH2  OT           -0.834       15.9994       0
   13372 TIP3 4377 TIP3 H1   HT            0.417         1.008       0
   13373 TIP3 4377 TIP3 H2   HT            0.417         1.008       0
   13374 TIP3 4378 TIP3 OH2  OT           -0.834       15.9994       0
   13375 TIP3 4378 TIP3 H1   HT            0.417         1.008       0
   13376 TIP3 4378 TIP3 H2   HT            0.417         1.008       0
   13377 TIP3 4379 TIP3 OH2  OT           -0.834       15.9994       0
   13378 TIP3 4379 TIP3 H1   HT            0.417         1.008       0
   13379 TIP3 4379 TIP3 H2   HT            0.417         1.008       0
   13380 TIP3 4380 TIP3 OH2  OT           -0.834       15.9994       0
   13381 TIP3 4380 TIP3 H1   HT            0.417         1.008       0
   13382 TIP3 4380 TIP3 H2   HT            0.417         1.008       0
   13383 TIP3 4381 TIP3 OH2  OT           -0.834       15.9994       0
   13384 TIP3 4381 TIP3 H1   HT            0.417         1.008       0
   13385 TIP3 4381 TIP3 H2   HT            0.417         1.008       0
   13386 TIP3 4382 TIP3 OH2  OT           -0.834       15.9994       0
   13387 TIP3 4382 TIP3 H1   HT            0.417         1.008       0
   13388 TIP3 4382 TIP3 H2   HT            0.417         1.008       0
   13389 TIP3 4383 TIP3 OH2  OT           -0.834       15.9994       0
   13390 TIP3 4383 TIP3 H1   HT            0.417         1.008       0
   13391 TIP3 4383 TIP3 H2   HT            0.417         1.008       0
   13392 TIP3 4384 TIP3 OH2  OT           -0.834       15.9994       0
   13393 TIP3 4384 TIP3 H1   HT            0.417         1.008       0
   13394 TIP3 4384 TIP3 H2   HT            0.417         1.008       0
   13395 TIP3 4385 TIP3 OH2  OT           -0.834       15.9994       0
   13396 TIP3 4385 TIP3 H1   HT            0.417         1.008       0
   13397 TIP3 4385 TIP3 H2   HT            0.417         1.008       0
   13398 TIP3 4386 TIP3 OH2  OT           -0.834       15.9994       0
   13399 TIP3 4386 TIP3 H1   HT            0.417         1.008       0
   13400 TIP3 4386 TIP3 H2   HT            0.417         1.008       0
   13401 TIP3 4387 TIP3 OH2  OT           -0.834       15.9994       0
   13402 TIP3 4387 TIP3 H1   HT            0.417         1.008       0
   13403 TIP3 4387 TIP3 H2   HT            0.417         1.008       0
   13404 TIP3 4388 TIP3 OH2  OT           -0.834       15.9994       0
   13405 TIP3 4388 TIP3 H1   HT            0.417         1.008       0
   13406 TIP3 4388 TIP3 H2   HT            0.417         1.008       0
   13407 TIP3 4389 TIP3 OH2  OT           -0.834       15.9994       0
   13408 TIP3 4389 TIP3 H1   HT            0.417         1.008       0
   13409 TIP3 4389 TIP3 H2   HT            0.417         1.008       0
   13410 TIP3 4390 TIP3 OH2  OT           -0.834       15.9994       0
   13411 TIP3 4390 TIP3 H1   HT            0.417         1.008       0
   13412 TIP3 4390 TIP3 H2   HT            0.417         1.008       0
   13413 TIP3 4391 TIP3 OH2  OT           -0.834       15.9994       0
   13414 TIP3 4391 TIP3 H1   HT            0.417         1.008       0
   13415 TIP3 4391 TIP3 H2   HT            0.417         1.008       0
   13416 TIP3 4392 TIP3 OH2  OT           -0.834       15.9994       0
   13417 TIP3 4392 TIP3 H1   HT            0.417         1.008       0
   13418 TIP3 4392 TIP3 H2   HT            0.417         1.008       0
   13419 TIP3 4393 TIP3 OH2  OT           -0.834       15.9994       0
   13420 TIP3 4393 TIP3 H1   HT            0.417         1.008       0
   13421 TIP3 4393 TIP3 H2   HT            0.417         1.008       0
   13422 TIP3 4394 TIP3 OH2  OT           -0.834       15.9994       0
   13423 TIP3 4394 TIP3 H1   HT            0.417         1.008       0
   13424 TIP3 4394 TIP3 H2   HT            0.417         1.008       0
   13425 TIP3 4395 TIP3 OH2  OT           -0.834       15.9994       0
   13426 TIP3 4395 TIP3 H1   HT            0.417         1.008       0
   13427 TIP3 4395 TIP3 H2   HT            0.417         1.008       0
   13428 TIP3 4396 TIP3 OH2  OT           -0.834       15.9994       0
   13429 TIP3 4396 TIP3 H1   HT            0.417         1.008       0
   13430 TIP3 4396 TIP3 H2   HT            0.417         1.008       0
   13431 TIP3 4397 TIP3 OH2  OT           -0.834       15.9994       0
   13432 TIP3 4397 TIP3 H1   HT            0.417         1.008       0
   13433 TIP3 4397 TIP3 H2   HT            0.417         1.008       0
   13434 TIP3 4398 TIP3 OH2  OT           -0.834       15.9994       0
   13435 TIP3 4398 TIP3 H1   HT            0.417         1.008       0
   13436 TIP3 4398 TIP3 H2   HT            0.417         1.008       0
   13437 TIP3 4399 TIP3 OH2  OT           -0.834       15.9994       0
   13438 TIP3 4399 TIP3 H1   HT            0.417         1.008       0
   13439 TIP3 4399 TIP3 H2   HT            0.417         1.008       0
   13440 TIP3 4400 TIP3 OH2  OT           -0.834       15.9994       0
   13441 TIP3 4400 TIP3 H1   HT            0.417         1.008       0
   13442 TIP3 4400 TIP3 H2   HT            0.417         1.008       0
   13443 TIP3 4401 TIP3 OH2  OT           -0.834       15.9994       0
   13444 TIP3 4401 TIP3 H1   HT            0.417         1.008       0
   13445 TIP3 4401 TIP3 H2   HT            0.417         1.008       0
   13446 TIP3 4402 TIP3 OH2  OT           -0.834       15.9994       0
   13447 TIP3 4402 TIP3 H1   HT            0.417         1.008       0
   13448 TIP3 4402 TIP3 H2   HT            0.417         1.008       0
   13449 TIP3 4403 TIP3 OH2  OT           -0.834       15.9994       0
   13450 TIP3 4403 TIP3 H1   HT            0.417         1.008       0
   13451 TIP3 4403 TIP3 H2   HT            0.417         1.008       0
   13452 TIP3 4404 TIP3 OH2  OT           -0.834       15.9994       0
   13453 TIP3 4404 TIP3 H1   HT            0.417         1.008       0
   13454 TIP3 4404 TIP3 H2   HT            0.417         1.008       0
   13455 TIP3 4405 TIP3 OH2  OT           -0.834       15.9994       0
   13456 TIP3 4405 TIP3 H1   HT            0.417         1.008       0
   13457 TIP3 4405 TIP3 H2   HT            0.417         1.008       0
   13458 TIP3 4406 TIP3 OH2  OT           -0.834       15.9994       0
   13459 TIP3 4406 TIP3 H1   HT            0.417         1.008       0
   13460 TIP3 4406 TIP3 H2   HT            0.417         1.008       0
   13461 TIP3 4407 TIP3 OH2  OT           -0.834       15.9994       0
   13462 TIP3 4407 TIP3 H1   HT            0.417         1.008       0
   13463 TIP3 4407 TIP3 H2   HT            0.417         1.008       0
   13464 TIP3 4408 TIP3 OH2  OT           -0.834       15.9994       0
   13465 TIP3 4408 TIP3 H1   HT            0.417         1.008       0
   13466 TIP3 4408 TIP3 H2   HT            0.417         1.008       0
   13467 TIP3 4409 TIP3 OH2  OT           -0.834       15.9994       0
   13468 TIP3 4409 TIP3 H1   HT            0.417         1.008       0
   13469 TIP3 4409 TIP3 H2   HT            0.417         1.008       0
   13470 TIP3 4410 TIP3 OH2  OT           -0.834       15.9994       0
   13471 TIP3 4410 TIP3 H1   HT            0.417         1.008       0
   13472 TIP3 4410 TIP3 H2   HT            0.417         1.008       0
   13473 TIP3 4411 TIP3 OH2  OT           -0.834       15.9994       0
   13474 TIP3 4411 TIP3 H1   HT            0.417         1.008       0
   13475 TIP3 4411 TIP3 H2   HT            0.417         1.008       0
   13476 TIP3 4412 TIP3 OH2  OT           -0.834       15.9994       0
   13477 TIP3 4412 TIP3 H1   HT            0.417         1.008       0
   13478 TIP3 4412 TIP3 H2   HT            0.417         1.008       0
   13479 TIP3 4413 TIP3 OH2  OT           -0.834       15.9994       0
   13480 TIP3 4413 TIP3 H1   HT            0.417         1.008       0
   13481 TIP3 4413 TIP3 H2   HT            0.417         1.008       0
   13482 TIP3 4414 TIP3 OH2  OT           -0.834       15.9994       0
   13483 TIP3 4414 TIP3 H1   HT            0.417         1.008       0
   13484 TIP3 4414 TIP3 H2   HT            0.417         1.008       0
   13485 TIP3 4415 TIP3 OH2  OT           -0.834       15.9994       0
   13486 TIP3 4415 TIP3 H1   HT            0.417         1.008       0
   13487 TIP3 4415 TIP3 H2   HT            0.417         1.008       0
   13488 TIP3 4416 TIP3 OH2  OT           -0.834       15.9994       0
   13489 TIP3 4416 TIP3 H1   HT            0.417         1.008       0
   13490 TIP3 4416 TIP3 H2   HT            0.417         1.008       0
   13491 TIP3 4417 TIP3 OH2  OT           -0.834       15.9994       0
   13492 TIP3 4417 TIP3 H1   HT            0.417         1.008       0
   13493 TIP3 4417 TIP3 H2   HT            0.417         1.008       0
   13494 TIP3 4418 TIP3 OH2  OT           -0.834       15.9994       0
   13495 TIP3 4418 TIP3 H1   HT            0.417         1.008       0
   13496 TIP3 4418 TIP3 H2   HT            0.417         1.008       0
   13497 TIP3 4419 TIP3 OH2  OT           -0.834       15.9994       0
   13498 TIP3 4419 TIP3 H1   HT            0.417         1.008       0
   13499 TIP3 4419 TIP3 H2   HT            0.417         1.008       0
   13500 TIP3 4420 TIP3 OH2  OT           -0.834       15.9994       0
   13501 TIP3 4420 TIP3 H1   HT            0.417         1.008       0
   13502 TIP3 4420 TIP3 H2   HT            0.417         1.008       0
   13503 TIP3 4421 TIP3 OH2  OT           -0.834       15.9994       0
   13504 TIP3 4421 TIP3 H1   HT            0.417         1.008       0
   13505 TIP3 4421 TIP3 H2   HT            0.417         1.008       0
   13506 TIP3 4422 TIP3 OH2  OT           -0.834       15.9994       0
   13507 TIP3 4422 TIP3 H1   HT            0.417         1.008       0
   13508 TIP3 4422 TIP3 H2   HT            0.417         1.008       0
   13509 TIP3 4423 TIP3 OH2  OT           -0.834       15.9994       0
   13510 TIP3 4423 TIP3 H1   HT            0.417         1.008       0
   13511 TIP3 4423 TIP3 H2   HT            0.417         1.008       0
   13512 TIP3 4424 TIP3 OH2  OT           -0.834       15.9994       0
   13513 TIP3 4424 TIP3 H1   HT            0.417         1.008       0
   13514 TIP3 4424 TIP3 H2   HT            0.417         1.008       0
   13515 TIP3 4425 TIP3 OH2  OT           -0.834       15.9994       0
   13516 TIP3 4425 TIP3 H1   HT            0.417         1.008       0
   13517 TIP3 4425 TIP3 H2   HT            0.417         1.008       0
   13518 TIP3 4426 TIP3 OH2  OT           -0.834       15.9994       0
   13519 TIP3 4426 TIP3 H1   HT            0.417         1.008       0
   13520 TIP3 4426 TIP3 H2   HT            0.417         1.008       0
   13521 TIP3 4427 TIP3 OH2  OT           -0.834       15.9994       0
   13522 TIP3 4427 TIP3 H1   HT            0.417         1.008       0
   13523 TIP3 4427 TIP3 H2   HT            0.417         1.008       0
   13524 TIP3 4428 TIP3 OH2  OT           -0.834       15.9994       0
   13525 TIP3 4428 TIP3 H1   HT            0.417         1.008       0
   13526 TIP3 4428 TIP3 H2   HT            0.417         1.008       0
   13527 TIP3 4429 TIP3 OH2  OT           -0.834       15.9994       0
   13528 TIP3 4429 TIP3 H1   HT            0.417         1.008       0
   13529 TIP3 4429 TIP3 H2   HT            0.417         1.008       0
   13530 TIP3 4430 TIP3 OH2  OT           -0.834       15.9994       0
   13531 TIP3 4430 TIP3 H1   HT            0.417         1.008       0
   13532 TIP3 4430 TIP3 H2   HT            0.417         1.008       0
   13533 TIP3 4431 TIP3 OH2  OT           -0.834       15.9994       0
   13534 TIP3 4431 TIP3 H1   HT            0.417         1.008       0
   13535 TIP3 4431 TIP3 H2   HT            0.417         1.008       0
   13536 TIP3 4432 TIP3 OH2  OT           -0.834       15.9994       0
   13537 TIP3 4432 TIP3 H1   HT            0.417         1.008       0
   13538 TIP3 4432 TIP3 H2   HT            0.417         1.008       0
   13539 TIP3 4433 TIP3 OH2  OT           -0.834       15.9994       0
   13540 TIP3 4433 TIP3 H1   HT            0.417         1.008       0
   13541 TIP3 4433 TIP3 H2   HT            0.417         1.008       0
   13542 TIP3 4434 TIP3 OH2  OT           -0.834       15.9994       0
   13543 TIP3 4434 TIP3 H1   HT            0.417         1.008       0
   13544 TIP3 4434 TIP3 H2   HT            0.417         1.008       0
   13545 TIP3 4435 TIP3 OH2  OT           -0.834       15.9994       0
   13546 TIP3 4435 TIP3 H1   HT            0.417         1.008       0
   13547 TIP3 4435 TIP3 H2   HT            0.417         1.008       0
   13548 TIP3 4436 TIP3 OH2  OT           -0.834       15.9994       0
   13549 TIP3 4436 TIP3 H1   HT            0.417         1.008       0
   13550 TIP3 4436 TIP3 H2   HT            0.417         1.008       0
   13551 TIP3 4437 TIP3 OH2  OT           -0.834       15.9994       0
   13552 TIP3 4437 TIP3 H1   HT            0.417         1.008       0
   13553 TIP3 4437 TIP3 H2   HT            0.417         1.008       0
   13554 TIP3 4438 TIP3 OH2  OT           -0.834       15.9994       0
   13555 TIP3 4438 TIP3 H1   HT            0.417         1.008       0
   13556 TIP3 4438 TIP3 H2   HT            0.417         1.008       0
   13557 TIP3 4439 TIP3 OH2  OT           -0.834       15.9994       0
   13558 TIP3 4439 TIP3 H1   HT            0.417         1.008       0
   13559 TIP3 4439 TIP3 H2   HT            0.417         1.008       0
   13560 TIP3 4440 TIP3 OH2  OT           -0.834       15.9994       0
   13561 TIP3 4440 TIP3 H1   HT            0.417         1.008       0
   13562 TIP3 4440 TIP3 H2   HT            0.417         1.008       0
   13563 TIP3 4441 TIP3 OH2  OT           -0.834       15.9994       0
   13564 TIP3 4441 TIP3 H1   HT            0.417         1.008       0
   13565 TIP3 4441 TIP3 H2   HT            0.417         1.008       0
   13566 TIP3 4442 TIP3 OH2  OT           -0.834       15.9994       0
   13567 TIP3 4442 TIP3 H1   HT            0.417         1.008       0
   13568 TIP3 4442 TIP3 H2   HT            0.417         1.008       0
   13569 TIP3 4443 TIP3 OH2  OT           -0.834       15.9994       0
   13570 TIP3 4443 TIP3 H1   HT            0.417         1.008       0
   13571 TIP3 4443 TIP3 H2   HT            0.417         1.008       0
   13572 TIP3 4444 TIP3 OH2  OT           -0.834       15.9994       0
   13573 TIP3 4444 TIP3 H1   HT            0.417         1.008       0
   13574 TIP3 4444 TIP3 H2   HT            0.417         1.008       0
   13575 TIP3 4445 TIP3 OH2  OT           -0.834       15.9994       0
   13576 TIP3 4445 TIP3 H1   HT            0.417         1.008       0
   13577 TIP3 4445 TIP3 H2   HT            0.417         1.008       0
   13578 TIP3 4446 TIP3 OH2  OT           -0.834       15.9994       0
   13579 TIP3 4446 TIP3 H1   HT            0.417         1.008       0
   13580 TIP3 4446 TIP3 H2   HT            0.417         1.008       0
   13581 TIP3 4447 TIP3 OH2  OT           -0.834       15.9994       0
   13582 TIP3 4447 TIP3 H1   HT            0.417         1.008       0
   13583 TIP3 4447 TIP3 H2   HT            0.417         1.008       0
   13584 TIP3 4448 TIP3 OH2  OT           -0.834       15.9994       0
   13585 TIP3 4448 TIP3 H1   HT            0.417         1.008       0
   13586 TIP3 4448 TIP3 H2   HT            0.417         1.008       0
   13587 TIP3 4449 TIP3 OH2  OT           -0.834       15.9994       0
   13588 TIP3 4449 TIP3 H1   HT            0.417         1.008       0
   13589 TIP3 4449 TIP3 H2   HT            0.417         1.008       0
   13590 TIP3 4450 TIP3 OH2  OT           -0.834       15.9994       0
   13591 TIP3 4450 TIP3 H1   HT            0.417         1.008       0
   13592 TIP3 4450 TIP3 H2   HT            0.417         1.008       0
   13593 TIP3 4451 TIP3 OH2  OT           -0.834       15.9994       0
   13594 TIP3 4451 TIP3 H1   HT            0.417         1.008       0
   13595 TIP3 4451 TIP3 H2   HT            0.417         1.008       0
   13596 TIP3 4452 TIP3 OH2  OT           -0.834       15.9994       0
   13597 TIP3 4452 TIP3 H1   HT            0.417         1.008       0
   13598 TIP3 4452 TIP3 H2   HT            0.417         1.008       0
   13599 TIP3 4453 TIP3 OH2  OT           -0.834       15.9994       0
   13600 TIP3 4453 TIP3 H1   HT            0.417         1.008       0
   13601 TIP3 4453 TIP3 H2   HT            0.417         1.008       0
   13602 TIP3 4454 TIP3 OH2  OT           -0.834       15.9994       0
   13603 TIP3 4454 TIP3 H1   HT            0.417         1.008       0
   13604 TIP3 4454 TIP3 H2   HT            0.417         1.008       0
   13605 TIP3 4455 TIP3 OH2  OT           -0.834       15.9994       0
   13606 TIP3 4455 TIP3 H1   HT            0.417         1.008       0
   13607 TIP3 4455 TIP3 H2   HT            0.417         1.008       0
   13608 TIP3 4456 TIP3 OH2  OT           -0.834       15.9994       0
   13609 TIP3 4456 TIP3 H1   HT            0.417         1.008       0
   13610 TIP3 4456 TIP3 H2   HT            0.417         1.008       0
   13611 TIP3 4457 TIP3 OH2  OT           -0.834       15.9994       0
   13612 TIP3 4457 TIP3 H1   HT            0.417         1.008       0
   13613 TIP3 4457 TIP3 H2   HT            0.417         1.008       0
   13614 TIP3 4458 TIP3 OH2  OT           -0.834       15.9994       0
   13615 TIP3 4458 TIP3 H1   HT            0.417         1.008       0
   13616 TIP3 4458 TIP3 H2   HT            0.417         1.008       0
   13617 TIP3 4459 TIP3 OH2  OT           -0.834       15.9994       0
   13618 TIP3 4459 TIP3 H1   HT            0.417         1.008       0
   13619 TIP3 4459 TIP3 H2   HT            0.417         1.008       0
   13620 TIP3 4460 TIP3 OH2  OT           -0.834       15.9994       0
   13621 TIP3 4460 TIP3 H1   HT            0.417         1.008       0
   13622 TIP3 4460 TIP3 H2   HT            0.417         1.008       0
   13623 TIP3 4461 TIP3 OH2  OT           -0.834       15.9994       0
   13624 TIP3 4461 TIP3 H1   HT            0.417         1.008       0
   13625 TIP3 4461 TIP3 H2   HT            0.417         1.008       0
   13626 TIP3 4462 TIP3 OH2  OT           -0.834       15.9994       0
   13627 TIP3 4462 TIP3 H1   HT            0.417         1.008       0
   13628 TIP3 4462 TIP3 H2   HT            0.417         1.008       0
   13629 TIP3 4463 TIP3 OH2  OT           -0.834       15.9994       0
   13630 TIP3 4463 TIP3 H1   HT            0.417         1.008       0
   13631 TIP3 4463 TIP3 H2   HT            0.417         1.008       0
   13632 TIP3 4464 TIP3 OH2  OT           -0.834       15.9994       0
   13633 TIP3 4464 TIP3 H1   HT            0.417         1.008       0
   13634 TIP3 4464 TIP3 H2   HT            0.417         1.008       0
   13635 TIP3 4465 TIP3 OH2  OT           -0.834       15.9994       0
   13636 TIP3 4465 TIP3 H1   HT            0.417         1.008       0
   13637 TIP3 4465 TIP3 H2   HT            0.417         1.008       0
   13638 TIP3 4466 TIP3 OH2  OT           -0.834       15.9994       0
   13639 TIP3 4466 TIP3 H1   HT            0.417         1.008       0
   13640 TIP3 4466 TIP3 H2   HT            0.417         1.008       0
   13641 TIP3 4467 TIP3 OH2  OT           -0.834       15.9994       0
   13642 TIP3 4467 TIP3 H1   HT            0.417         1.008       0
   13643 TIP3 4467 TIP3 H2   HT            0.417         1.008       0
   13644 TIP3 4468 TIP3 OH2  OT           -0.834       15.9994       0
   13645 TIP3 4468 TIP3 H1   HT            0.417         1.008       0
   13646 TIP3 4468 TIP3 H2   HT            0.417         1.008       0
   13647 TIP3 4469 TIP3 OH2  OT           -0.834       15.9994       0
   13648 TIP3 4469 TIP3 H1   HT            0.417         1.008       0
   13649 TIP3 4469 TIP3 H2   HT            0.417         1.008       0
   13650 TIP3 4470 TIP3 OH2  OT           -0.834       15.9994       0
   13651 TIP3 4470 TIP3 H1   HT            0.417         1.008       0
   13652 TIP3 4470 TIP3 H2   HT            0.417         1.008       0
   13653 TIP3 4471 TIP3 OH2  OT           -0.834       15.9994       0
   13654 TIP3 4471 TIP3 H1   HT            0.417         1.008       0
   13655 TIP3 4471 TIP3 H2   HT            0.417         1.008       0
   13656 TIP3 4472 TIP3 OH2  OT           -0.834       15.9994       0
   13657 TIP3 4472 TIP3 H1   HT            0.417         1.008       0
   13658 TIP3 4472 TIP3 H2   HT            0.417         1.008       0
   13659 TIP3 4473 TIP3 OH2  OT           -0.834       15.9994       0
   13660 TIP3 4473 TIP3 H1   HT            0.417         1.008       0
   13661 TIP3 4473 TIP3 H2   HT            0.417         1.008       0
   13662 TIP3 4474 TIP3 OH2  OT           -0.834       15.9994       0
   13663 TIP3 4474 TIP3 H1   HT            0.417         1.008       0
   13664 TIP3 4474 TIP3 H2   HT            0.417         1.008       0
   13665 TIP3 4475 TIP3 OH2  OT           -0.834       15.9994       0
   13666 TIP3 4475 TIP3 H1   HT            0.417         1.008       0
   13667 TIP3 4475 TIP3 H2   HT            0.417         1.008       0
   13668 TIP3 4476 TIP3 OH2  OT           -0.834       15.9994       0
   13669 TIP3 4476 TIP3 H1   HT            0.417         1.008       0
   13670 TIP3 4476 TIP3 H2   HT            0.417         1.008       0
   13671 TIP3 4477 TIP3 OH2  OT           -0.834       15.9994       0
   13672 TIP3 4477 TIP3 H1   HT            0.417         1.008       0
   13673 TIP3 4477 TIP3 H2   HT            0.417         1.008       0
   13674 TIP3 4478 TIP3 OH2  OT           -0.834       15.9994       0
   13675 TIP3 4478 TIP3 H1   HT            0.417         1.008       0
   13676 TIP3 4478 TIP3 H2   HT            0.417         1.008       0
   13677 TIP3 4479 TIP3 OH2  OT           -0.834       15.9994       0
   13678 TIP3 4479 TIP3 H1   HT            0.417         1.008       0
   13679 TIP3 4479 TIP3 H2   HT            0.417         1.008       0
   13680 TIP3 4480 TIP3 OH2  OT           -0.834       15.9994       0
   13681 TIP3 4480 TIP3 H1   HT            0.417         1.008       0
   13682 TIP3 4480 TIP3 H2   HT            0.417         1.008       0
   13683 TIP3 4481 TIP3 OH2  OT           -0.834       15.9994       0
   13684 TIP3 4481 TIP3 H1   HT            0.417         1.008       0
   13685 TIP3 4481 TIP3 H2   HT            0.417         1.008       0
   13686 TIP3 4482 TIP3 OH2  OT           -0.834       15.9994       0
   13687 TIP3 4482 TIP3 H1   HT            0.417         1.008       0
   13688 TIP3 4482 TIP3 H2   HT            0.417         1.008       0
   13689 TIP3 4483 TIP3 OH2  OT           -0.834       15.9994       0
   13690 TIP3 4483 TIP3 H1   HT            0.417         1.008       0
   13691 TIP3 4483 TIP3 H2   HT            0.417         1.008       0
   13692 TIP3 4484 TIP3 OH2  OT           -0.834       15.9994       0
   13693 TIP3 4484 TIP3 H1   HT            0.417         1.008       0
   13694 TIP3 4484 TIP3 H2   HT            0.417         1.008       0
   13695 TIP3 4485 TIP3 OH2  OT           -0.834       15.9994       0
   13696 TIP3 4485 TIP3 H1   HT            0.417         1.008       0
   13697 TIP3 4485 TIP3 H2   HT            0.417         1.008       0
   13698 TIP3 4486 TIP3 OH2  OT           -0.834       15.9994       0
   13699 TIP3 4486 TIP3 H1   HT            0.417         1.008       0
   13700 TIP3 4486 TIP3 H2   HT            0.417         1.008       0
   13701 TIP3 4487 TIP3 OH2  OT           -0.834       15.9994       0
   13702 TIP3 4487 TIP3 H1   HT            0.417         1.008       0
   13703 TIP3 4487 TIP3 H2   HT            0.417         1.008       0
   13704 TIP3 4488 TIP3 OH2  OT           -0.834       15.9994       0
   13705 TIP3 4488 TIP3 H1   HT            0.417         1.008       0
   13706 TIP3 4488 TIP3 H2   HT            0.417         1.008       0
   13707 TIP3 4489 TIP3 OH2  OT           -0.834       15.9994       0
   13708 TIP3 4489 TIP3 H1   HT            0.417         1.008       0
   13709 TIP3 4489 TIP3 H2   HT            0.417         1.008       0
   13710 TIP3 4490 TIP3 OH2  OT           -0.834       15.9994       0
   13711 TIP3 4490 TIP3 H1   HT            0.417         1.008       0
   13712 TIP3 4490 TIP3 H2   HT            0.417         1.008       0
   13713 TIP3 4491 TIP3 OH2  OT           -0.834       15.9994       0
   13714 TIP3 4491 TIP3 H1   HT            0.417         1.008       0
   13715 TIP3 4491 TIP3 H2   HT            0.417         1.008       0
   13716 TIP3 4492 TIP3 OH2  OT           -0.834       15.9994       0
   13717 TIP3 4492 TIP3 H1   HT            0.417         1.008       0
   13718 TIP3 4492 TIP3 H2   HT            0.417         1.008       0
   13719 TIP3 4493 TIP3 OH2  OT           -0.834       15.9994       0
   13720 TIP3 4493 TIP3 H1   HT            0.417         1.008       0
   13721 TIP3 4493 TIP3 H2   HT            0.417         1.008       0
   13722 TIP3 4494 TIP3 OH2  OT           -0.834       15.9994       0
   13723 TIP3 4494 TIP3 H1   HT            0.417         1.008       0
   13724 TIP3 4494 TIP3 H2   HT            0.417         1.008       0
   13725 TIP3 4495 TIP3 OH2  OT           -0.834       15.9994       0
   13726 TIP3 4495 TIP3 H1   HT            0.417         1.008       0
   13727 TIP3 4495 TIP3 H2   HT            0.417         1.008       0
   13728 TIP3 4496 TIP3 OH2  OT           -0.834       15.9994       0
   13729 TIP3 4496 TIP3 H1   HT            0.417         1.008       0
   13730 TIP3 4496 TIP3 H2   HT            0.417         1.008       0
   13731 TIP3 4497 TIP3 OH2  OT           -0.834       15.9994       0
   13732 TIP3 4497 TIP3 H1   HT            0.417         1.008       0
   13733 TIP3 4497 TIP3 H2   HT            0.417         1.008       0
   13734 TIP3 4498 TIP3 OH2  OT           -0.834       15.9994       0
   13735 TIP3 4498 TIP3 H1   HT            0.417         1.008       0
   13736 TIP3 4498 TIP3 H2   HT            0.417         1.008       0
   13737 TIP3 4499 TIP3 OH2  OT           -0.834       15.9994       0
   13738 TIP3 4499 TIP3 H1   HT            0.417         1.008       0
   13739 TIP3 4499 TIP3 H2   HT            0.417         1.008       0
   13740 TIP3 4500 TIP3 OH2  OT           -0.834       15.9994       0
   13741 TIP3 4500 TIP3 H1   HT            0.417         1.008       0
   13742 TIP3 4500 TIP3 H2   HT            0.417         1.008       0
   13743 TIP3 4501 TIP3 OH2  OT           -0.834       15.9994       0
   13744 TIP3 4501 TIP3 H1   HT            0.417         1.008       0
   13745 TIP3 4501 TIP3 H2   HT            0.417         1.008       0
   13746 TIP3 4502 TIP3 OH2  OT           -0.834       15.9994       0
   13747 TIP3 4502 TIP3 H1   HT            0.417         1.008       0
   13748 TIP3 4502 TIP3 H2   HT            0.417         1.008       0
   13749 TIP3 4503 TIP3 OH2  OT           -0.834       15.9994       0
   13750 TIP3 4503 TIP3 H1   HT            0.417         1.008       0
   13751 TIP3 4503 TIP3 H2   HT            0.417         1.008       0
   13752 TIP3 4504 TIP3 OH2  OT           -0.834       15.9994       0
   13753 TIP3 4504 TIP3 H1   HT            0.417         1.008       0
   13754 TIP3 4504 TIP3 H2   HT            0.417         1.008       0
   13755 TIP3 4505 TIP3 OH2  OT           -0.834       15.9994       0
   13756 TIP3 4505 TIP3 H1   HT            0.417         1.008       0
   13757 TIP3 4505 TIP3 H2   HT            0.417         1.008       0
   13758 TIP3 4506 TIP3 OH2  OT           -0.834       15.9994       0
   13759 TIP3 4506 TIP3 H1   HT            0.417         1.008       0
   13760 TIP3 4506 TIP3 H2   HT            0.417         1.008       0
   13761 TIP3 4507 TIP3 OH2  OT           -0.834       15.9994       0
   13762 TIP3 4507 TIP3 H1   HT            0.417         1.008       0
   13763 TIP3 4507 TIP3 H2   HT            0.417         1.008       0
   13764 TIP3 4508 TIP3 OH2  OT           -0.834       15.9994       0
   13765 TIP3 4508 TIP3 H1   HT            0.417         1.008       0
   13766 TIP3 4508 TIP3 H2   HT            0.417         1.008       0
   13767 TIP3 4509 TIP3 OH2  OT           -0.834       15.9994       0
   13768 TIP3 4509 TIP3 H1   HT            0.417         1.008       0
   13769 TIP3 4509 TIP3 H2   HT            0.417         1.008       0
   13770 TIP3 4510 TIP3 OH2  OT           -0.834       15.9994       0
   13771 TIP3 4510 TIP3 H1   HT            0.417         1.008       0
   13772 TIP3 4510 TIP3 H2   HT            0.417         1.008       0
   13773 TIP3 4511 TIP3 OH2  OT           -0.834       15.9994       0
   13774 TIP3 4511 TIP3 H1   HT            0.417         1.008       0
   13775 TIP3 4511 TIP3 H2   HT            0.417         1.008       0
   13776 TIP3 4512 TIP3 OH2  OT           -0.834       15.9994       0
   13777 TIP3 4512 TIP3 H1   HT            0.417         1.008       0
   13778 TIP3 4512 TIP3 H2   HT            0.417         1.008       0
   13779 TIP3 4513 TIP3 OH2  OT           -0.834       15.9994       0
   13780 TIP3 4513 TIP3 H1   HT            0.417         1.008       0
   13781 TIP3 4513 TIP3 H2   HT            0.417         1.008       0
   13782 TIP3 4514 TIP3 OH2  OT           -0.834       15.9994       0
   13783 TIP3 4514 TIP3 H1   HT            0.417         1.008       0
   13784 TIP3 4514 TIP3 H2   HT            0.417         1.008       0
   13785 TIP3 4515 TIP3 OH2  OT           -0.834       15.9994       0
   13786 TIP3 4515 TIP3 H1   HT            0.417         1.008       0
   13787 TIP3 4515 TIP3 H2   HT            0.417         1.008       0
   13788 TIP3 4516 TIP3 OH2  OT           -0.834       15.9994       0
   13789 TIP3 4516 TIP3 H1   HT            0.417         1.008       0
   13790 TIP3 4516 TIP3 H2   HT            0.417         1.008       0
   13791 TIP3 4517 TIP3 OH2  OT           -0.834       15.9994       0
   13792 TIP3 4517 TIP3 H1   HT            0.417         1.008       0
   13793 TIP3 4517 TIP3 H2   HT            0.417         1.008       0
   13794 TIP3 4518 TIP3 OH2  OT           -0.834       15.9994       0
   13795 TIP3 4518 TIP3 H1   HT            0.417         1.008       0
   13796 TIP3 4518 TIP3 H2   HT            0.417         1.008       0
   13797 TIP3 4519 TIP3 OH2  OT           -0.834       15.9994       0
   13798 TIP3 4519 TIP3 H1   HT            0.417         1.008       0
   13799 TIP3 4519 TIP3 H2   HT            0.417         1.008       0
   13800 TIP3 4520 TIP3 OH2  OT           -0.834       15.9994       0
   13801 TIP3 4520 TIP3 H1   HT            0.417         1.008       0
   13802 TIP3 4520 TIP3 H2   HT            0.417         1.008       0
   13803 TIP3 4521 TIP3 OH2  OT           -0.834       15.9994       0
   13804 TIP3 4521 TIP3 H1   HT            0.417         1.008       0
   13805 TIP3 4521 TIP3 H2   HT            0.417         1.008       0
   13806 TIP3 4522 TIP3 OH2  OT           -0.834       15.9994       0
   13807 TIP3 4522 TIP3 H1   HT            0.417         1.008       0
   13808 TIP3 4522 TIP3 H2   HT            0.417         1.008       0
   13809 TIP3 4523 TIP3 OH2  OT           -0.834       15.9994       0
   13810 TIP3 4523 TIP3 H1   HT            0.417         1.008       0
   13811 TIP3 4523 TIP3 H2   HT            0.417         1.008       0
   13812 TIP3 4524 TIP3 OH2  OT           -0.834       15.9994       0
   13813 TIP3 4524 TIP3 H1   HT            0.417         1.008       0
   13814 TIP3 4524 TIP3 H2   HT            0.417         1.008       0
   13815 TIP3 4525 TIP3 OH2  OT           -0.834       15.9994       0
   13816 TIP3 4525 TIP3 H1   HT            0.417         1.008       0
   13817 TIP3 4525 TIP3 H2   HT            0.417         1.008       0
   13818 TIP3 4526 TIP3 OH2  OT           -0.834       15.9994       0
   13819 TIP3 4526 TIP3 H1   HT            0.417         1.008       0
   13820 TIP3 4526 TIP3 H2   HT            0.417         1.008       0
   13821 TIP3 4527 TIP3 OH2  OT           -0.834       15.9994       0
   13822 TIP3 4527 TIP3 H1   HT            0.417         1.008       0
   13823 TIP3 4527 TIP3 H2   HT            0.417         1.008       0
   13824 TIP3 4528 TIP3 OH2  OT           -0.834       15.9994       0
   13825 TIP3 4528 TIP3 H1   HT            0.417         1.008       0
   13826 TIP3 4528 TIP3 H2   HT            0.417         1.008       0
   13827 TIP3 4529 TIP3 OH2  OT           -0.834       15.9994       0
   13828 TIP3 4529 TIP3 H1   HT            0.417         1.008       0
   13829 TIP3 4529 TIP3 H2   HT            0.417         1.008       0
   13830 TIP3 4530 TIP3 OH2  OT           -0.834       15.9994       0
   13831 TIP3 4530 TIP3 H1   HT            0.417         1.008       0
   13832 TIP3 4530 TIP3 H2   HT            0.417         1.008       0
   13833 TIP3 4531 TIP3 OH2  OT           -0.834       15.9994       0
   13834 TIP3 4531 TIP3 H1   HT            0.417         1.008       0
   13835 TIP3 4531 TIP3 H2   HT            0.417         1.008       0
   13836 TIP3 4532 TIP3 OH2  OT           -0.834       15.9994       0
   13837 TIP3 4532 TIP3 H1   HT            0.417         1.008       0
   13838 TIP3 4532 TIP3 H2   HT            0.417         1.008       0
   13839 TIP3 4533 TIP3 OH2  OT           -0.834       15.9994       0
   13840 TIP3 4533 TIP3 H1   HT            0.417         1.008       0
   13841 TIP3 4533 TIP3 H2   HT            0.417         1.008       0
   13842 TIP3 4534 TIP3 OH2  OT           -0.834       15.9994       0
   13843 TIP3 4534 TIP3 H1   HT            0.417         1.008       0
   13844 TIP3 4534 TIP3 H2   HT            0.417         1.008       0
   13845 TIP3 4535 TIP3 OH2  OT           -0.834       15.9994       0
   13846 TIP3 4535 TIP3 H1   HT            0.417         1.008       0
   13847 TIP3 4535 TIP3 H2   HT            0.417         1.008       0
   13848 TIP3 4536 TIP3 OH2  OT           -0.834       15.9994       0
   13849 TIP3 4536 TIP3 H1   HT            0.417         1.008       0
   13850 TIP3 4536 TIP3 H2   HT            0.417         1.008       0
   13851 TIP3 4537 TIP3 OH2  OT           -0.834       15.9994       0
   13852 TIP3 4537 TIP3 H1   HT            0.417         1.008       0
   13853 TIP3 4537 TIP3 H2   HT            0.417         1.008       0
   13854 TIP3 4538 TIP3 OH2  OT           -0.834       15.9994       0
   13855 TIP3 4538 TIP3 H1   HT            0.417         1.008       0
   13856 TIP3 4538 TIP3 H2   HT            0.417         1.008       0
   13857 TIP3 4539 TIP3 OH2  OT           -0.834       15.9994       0
   13858 TIP3 4539 TIP3 H1   HT            0.417         1.008       0
   13859 TIP3 4539 TIP3 H2   HT            0.417         1.008       0
   13860 TIP3 4540 TIP3 OH2  OT           -0.834       15.9994       0
   13861 TIP3 4540 TIP3 H1   HT            0.417         1.008       0
   13862 TIP3 4540 TIP3 H2   HT            0.417         1.008       0
   13863 TIP3 4541 TIP3 OH2  OT           -0.834       15.9994       0
   13864 TIP3 4541 TIP3 H1   HT            0.417         1.008       0
   13865 TIP3 4541 TIP3 H2   HT            0.417         1.008       0
   13866 TIP3 4542 TIP3 OH2  OT           -0.834       15.9994       0
   13867 TIP3 4542 TIP3 H1   HT            0.417         1.008       0
   13868 TIP3 4542 TIP3 H2   HT            0.417         1.008       0
   13869 TIP3 4543 TIP3 OH2  OT           -0.834       15.9994       0
   13870 TIP3 4543 TIP3 H1   HT            0.417         1.008       0
   13871 TIP3 4543 TIP3 H2   HT            0.417         1.008       0
   13872 TIP3 4544 TIP3 OH2  OT           -0.834       15.9994       0
   13873 TIP3 4544 TIP3 H1   HT            0.417         1.008       0
   13874 TIP3 4544 TIP3 H2   HT            0.417         1.008       0
   13875 TIP3 4545 TIP3 OH2  OT           -0.834       15.9994       0
   13876 TIP3 4545 TIP3 H1   HT            0.417         1.008       0
   13877 TIP3 4545 TIP3 H2   HT            0.417         1.008       0
   13878 TIP3 4546 TIP3 OH2  OT           -0.834       15.9994       0
   13879 TIP3 4546 TIP3 H1   HT            0.417         1.008       0
   13880 TIP3 4546 TIP3 H2   HT            0.417         1.008       0
   13881 TIP3 4547 TIP3 OH2  OT           -0.834       15.9994       0
   13882 TIP3 4547 TIP3 H1   HT            0.417         1.008       0
   13883 TIP3 4547 TIP3 H2   HT            0.417         1.008       0
   13884 TIP3 4548 TIP3 OH2  OT           -0.834       15.9994       0
   13885 TIP3 4548 TIP3 H1   HT            0.417         1.008       0
   13886 TIP3 4548 TIP3 H2   HT            0.417         1.008       0
   13887 TIP3 4549 TIP3 OH2  OT           -0.834       15.9994       0
   13888 TIP3 4549 TIP3 H1   HT            0.417         1.008       0
   13889 TIP3 4549 TIP3 H2   HT            0.417         1.008       0
   13890 TIP3 4550 TIP3 OH2  OT           -0.834       15.9994       0
   13891 TIP3 4550 TIP3 H1   HT            0.417         1.008       0
   13892 TIP3 4550 TIP3 H2   HT            0.417         1.008       0
   13893 TIP3 4551 TIP3 OH2  OT           -0.834       15.9994       0
   13894 TIP3 4551 TIP3 H1   HT            0.417         1.008       0
   13895 TIP3 4551 TIP3 H2   HT            0.417         1.008       0
   13896 TIP3 4552 TIP3 OH2  OT           -0.834       15.9994       0
   13897 TIP3 4552 TIP3 H1   HT            0.417         1.008       0
   13898 TIP3 4552 TIP3 H2   HT            0.417         1.008       0
   13899 TIP3 4553 TIP3 OH2  OT           -0.834       15.9994       0
   13900 TIP3 4553 TIP3 H1   HT            0.417         1.008       0
   13901 TIP3 4553 TIP3 H2   HT            0.417         1.008       0
   13902 TIP3 4554 TIP3 OH2  OT           -0.834       15.9994       0
   13903 TIP3 4554 TIP3 H1   HT            0.417         1.008       0
   13904 TIP3 4554 TIP3 H2   HT            0.417         1.008       0
   13905 TIP3 4555 TIP3 OH2  OT           -0.834       15.9994       0
   13906 TIP3 4555 TIP3 H1   HT            0.417         1.008       0
   13907 TIP3 4555 TIP3 H2   HT            0.417         1.008       0
   13908 TIP3 4556 TIP3 OH2  OT           -0.834       15.9994       0
   13909 TIP3 4556 TIP3 H1   HT            0.417         1.008       0
   13910 TIP3 4556 TIP3 H2   HT            0.417         1.008       0
   13911 TIP3 4557 TIP3 OH2  OT           -0.834       15.9994       0
   13912 TIP3 4557 TIP3 H1   HT            0.417         1.008       0
   13913 TIP3 4557 TIP3 H2   HT            0.417         1.008       0
   13914 TIP3 4558 TIP3 OH2  OT           -0.834       15.9994       0
   13915 TIP3 4558 TIP3 H1   HT            0.417         1.008       0
   13916 TIP3 4558 TIP3 H2   HT            0.417         1.008       0
   13917 TIP3 4559 TIP3 OH2  OT           -0.834       15.9994       0
   13918 TIP3 4559 TIP3 H1   HT            0.417         1.008       0
   13919 TIP3 4559 TIP3 H2   HT            0.417         1.008       0
   13920 TIP3 4560 TIP3 OH2  OT           -0.834       15.9994       0
   13921 TIP3 4560 TIP3 H1   HT            0.417         1.008       0
   13922 TIP3 4560 TIP3 H2   HT            0.417         1.008       0
   13923 TIP3 4561 TIP3 OH2  OT           -0.834       15.9994       0
   13924 TIP3 4561 TIP3 H1   HT            0.417         1.008       0
   13925 TIP3 4561 TIP3 H2   HT            0.417         1.008       0
   13926 TIP3 4562 TIP3 OH2  OT           -0.834       15.9994       0
   13927 TIP3 4562 TIP3 H1   HT            0.417         1.008       0
   13928 TIP3 4562 TIP3 H2   HT            0.417         1.008       0
   13929 TIP3 4563 TIP3 OH2  OT           -0.834       15.9994       0
   13930 TIP3 4563 TIP3 H1   HT            0.417         1.008       0
   13931 TIP3 4563 TIP3 H2   HT            0.417         1.008       0
   13932 TIP3 4564 TIP3 OH2  OT           -0.834       15.9994       0
   13933 TIP3 4564 TIP3 H1   HT            0.417         1.008       0
   13934 TIP3 4564 TIP3 H2   HT            0.417         1.008       0
   13935 TIP3 4565 TIP3 OH2  OT           -0.834       15.9994       0
   13936 TIP3 4565 TIP3 H1   HT            0.417         1.008       0
   13937 TIP3 4565 TIP3 H2   HT            0.417         1.008       0
   13938 TIP3 4566 TIP3 OH2  OT           -0.834       15.9994       0
   13939 TIP3 4566 TIP3 H1   HT            0.417         1.008       0
   13940 TIP3 4566 TIP3 H2   HT            0.417         1.008       0
   13941 TIP3 4567 TIP3 OH2  OT           -0.834       15.9994       0
   13942 TIP3 4567 TIP3 H1   HT            0.417         1.008       0
   13943 TIP3 4567 TIP3 H2   HT            0.417         1.008       0
   13944 TIP3 4568 TIP3 OH2  OT           -0.834       15.9994       0
   13945 TIP3 4568 TIP3 H1   HT            0.417         1.008       0
   13946 TIP3 4568 TIP3 H2   HT            0.417         1.008       0
   13947 TIP3 4569 TIP3 OH2  OT           -0.834       15.9994       0
   13948 TIP3 4569 TIP3 H1   HT            0.417         1.008       0
   13949 TIP3 4569 TIP3 H2   HT            0.417         1.008       0
   13950 TIP3 4570 TIP3 OH2  OT           -0.834       15.9994       0
   13951 TIP3 4570 TIP3 H1   HT            0.417         1.008       0
   13952 TIP3 4570 TIP3 H2   HT            0.417         1.008       0
   13953 TIP3 4571 TIP3 OH2  OT           -0.834       15.9994       0
   13954 TIP3 4571 TIP3 H1   HT            0.417         1.008       0
   13955 TIP3 4571 TIP3 H2   HT            0.417         1.008       0
   13956 TIP3 4572 TIP3 OH2  OT           -0.834       15.9994       0
   13957 TIP3 4572 TIP3 H1   HT            0.417         1.008       0
   13958 TIP3 4572 TIP3 H2   HT            0.417         1.008       0
   13959 TIP3 4573 TIP3 OH2  OT           -0.834       15.9994       0
   13960 TIP3 4573 TIP3 H1   HT            0.417         1.008       0
   13961 TIP3 4573 TIP3 H2   HT            0.417         1.008       0
   13962 TIP3 4574 TIP3 OH2  OT           -0.834       15.9994       0
   13963 TIP3 4574 TIP3 H1   HT            0.417         1.008       0
   13964 TIP3 4574 TIP3 H2   HT            0.417         1.008       0
   13965 TIP3 4575 TIP3 OH2  OT           -0.834       15.9994       0
   13966 TIP3 4575 TIP3 H1   HT            0.417         1.008       0
   13967 TIP3 4575 TIP3 H2   HT            0.417         1.008       0
   13968 TIP3 4576 TIP3 OH2  OT           -0.834       15.9994       0
   13969 TIP3 4576 TIP3 H1   HT            0.417         1.008       0
   13970 TIP3 4576 TIP3 H2   HT            0.417         1.008       0
   13971 TIP3 4577 TIP3 OH2  OT           -0.834       15.9994       0
   13972 TIP3 4577 TIP3 H1   HT            0.417         1.008       0
   13973 TIP3 4577 TIP3 H2   HT            0.417         1.008       0
   13974 TIP3 4578 TIP3 OH2  OT           -0.834       15.9994       0
   13975 TIP3 4578 TIP3 H1   HT            0.417         1.008       0
   13976 TIP3 4578 TIP3 H2   HT            0.417         1.008       0
   13977 TIP3 4579 TIP3 OH2  OT           -0.834       15.9994       0
   13978 TIP3 4579 TIP3 H1   HT            0.417         1.008       0
   13979 TIP3 4579 TIP3 H2   HT            0.417         1.008       0
   13980 TIP3 4580 TIP3 OH2  OT           -0.834       15.9994       0
   13981 TIP3 4580 TIP3 H1   HT            0.417         1.008       0
   13982 TIP3 4580 TIP3 H2   HT            0.417         1.008       0
   13983 TIP3 4581 TIP3 OH2  OT           -0.834       15.9994       0
   13984 TIP3 4581 TIP3 H1   HT            0.417         1.008       0
   13985 TIP3 4581 TIP3 H2   HT            0.417         1.008       0
   13986 TIP3 4582 TIP3 OH2  OT           -0.834       15.9994       0
   13987 TIP3 4582 TIP3 H1   HT            0.417         1.008       0
   13988 TIP3 4582 TIP3 H2   HT            0.417         1.008       0
   13989 TIP3 4583 TIP3 OH2  OT           -0.834       15.9994       0
   13990 TIP3 4583 TIP3 H1   HT            0.417         1.008       0
   13991 TIP3 4583 TIP3 H2   HT            0.417         1.008       0
   13992 TIP3 4584 TIP3 OH2  OT           -0.834       15.9994       0
   13993 TIP3 4584 TIP3 H1   HT            0.417         1.008       0
   13994 TIP3 4584 TIP3 H2   HT            0.417         1.008       0
   13995 TIP3 4585 TIP3 OH2  OT           -0.834       15.9994       0
   13996 TIP3 4585 TIP3 H1   HT            0.417         1.008       0
   13997 TIP3 4585 TIP3 H2   HT            0.417         1.008       0
   13998 TIP3 4586 TIP3 OH2  OT           -0.834       15.9994       0
   13999 TIP3 4586 TIP3 H1   HT            0.417         1.008       0
   14000 TIP3 4586 TIP3 H2   HT            0.417         1.008       0
   14001 TIP3 4587 TIP3 OH2  OT           -0.834       15.9994       0
   14002 TIP3 4587 TIP3 H1   HT            0.417         1.008       0
   14003 TIP3 4587 TIP3 H2   HT            0.417         1.008       0
   14004 TIP3 4588 TIP3 OH2  OT           -0.834       15.9994       0
   14005 TIP3 4588 TIP3 H1   HT            0.417         1.008       0
   14006 TIP3 4588 TIP3 H2   HT            0.417         1.008       0
   14007 TIP3 4589 TIP3 OH2  OT           -0.834       15.9994       0
   14008 TIP3 4589 TIP3 H1   HT            0.417         1.008       0
   14009 TIP3 4589 TIP3 H2   HT            0.417         1.008       0
   14010 TIP3 4590 TIP3 OH2  OT           -0.834       15.9994       0
   14011 TIP3 4590 TIP3 H1   HT            0.417         1.008       0
   14012 TIP3 4590 TIP3 H2   HT            0.417         1.008       0
   14013 TIP3 4591 TIP3 OH2  OT           -0.834       15.9994       0
   14014 TIP3 4591 TIP3 H1   HT            0.417         1.008       0
   14015 TIP3 4591 TIP3 H2   HT            0.417         1.008       0
   14016 TIP3 4592 TIP3 OH2  OT           -0.834       15.9994       0
   14017 TIP3 4592 TIP3 H1   HT            0.417         1.008       0
   14018 TIP3 4592 TIP3 H2   HT            0.417         1.008       0
   14019 TIP3 4593 TIP3 OH2  OT           -0.834       15.9994       0
   14020 TIP3 4593 TIP3 H1   HT            0.417         1.008       0
   14021 TIP3 4593 TIP3 H2   HT            0.417         1.008       0
   14022 TIP3 4594 TIP3 OH2  OT           -0.834       15.9994       0
   14023 TIP3 4594 TIP3 H1   HT            0.417         1.008       0
   14024 TIP3 4594 TIP3 H2   HT            0.417         1.008       0
   14025 TIP3 4595 TIP3 OH2  OT           -0.834       15.9994       0
   14026 TIP3 4595 TIP3 H1   HT            0.417         1.008       0
   14027 TIP3 4595 TIP3 H2   HT            0.417         1.008       0
   14028 TIP3 4596 TIP3 OH2  OT           -0.834       15.9994       0
   14029 TIP3 4596 TIP3 H1   HT            0.417         1.008       0
   14030 TIP3 4596 TIP3 H2   HT            0.417         1.008       0
   14031 TIP3 4597 TIP3 OH2  OT           -0.834       15.9994       0
   14032 TIP3 4597 TIP3 H1   HT            0.417         1.008       0
   14033 TIP3 4597 TIP3 H2   HT            0.417         1.008       0
   14034 TIP3 4598 TIP3 OH2  OT           -0.834       15.9994       0
   14035 TIP3 4598 TIP3 H1   HT            0.417         1.008       0
   14036 TIP3 4598 TIP3 H2   HT            0.417         1.008       0
   14037 TIP3 4599 TIP3 OH2  OT           -0.834       15.9994       0
   14038 TIP3 4599 TIP3 H1   HT            0.417         1.008       0
   14039 TIP3 4599 TIP3 H2   HT            0.417         1.008       0
   14040 TIP3 4600 TIP3 OH2  OT           -0.834       15.9994       0
   14041 TIP3 4600 TIP3 H1   HT            0.417         1.008       0
   14042 TIP3 4600 TIP3 H2   HT            0.417         1.008       0
   14043 TIP3 4601 TIP3 OH2  OT           -0.834       15.9994       0
   14044 TIP3 4601 TIP3 H1   HT            0.417         1.008       0
   14045 TIP3 4601 TIP3 H2   HT            0.417         1.008       0
   14046 TIP3 4602 TIP3 OH2  OT           -0.834       15.9994       0
   14047 TIP3 4602 TIP3 H1   HT            0.417         1.008       0
   14048 TIP3 4602 TIP3 H2   HT            0.417         1.008       0
   14049 TIP3 4603 TIP3 OH2  OT           -0.834       15.9994       0
   14050 TIP3 4603 TIP3 H1   HT            0.417         1.008       0
   14051 TIP3 4603 TIP3 H2   HT            0.417         1.008       0
   14052 TIP3 4604 TIP3 OH2  OT           -0.834       15.9994       0
   14053 TIP3 4604 TIP3 H1   HT            0.417         1.008       0
   14054 TIP3 4604 TIP3 H2   HT            0.417         1.008       0
   14055 TIP3 4605 TIP3 OH2  OT           -0.834       15.9994       0
   14056 TIP3 4605 TIP3 H1   HT            0.417         1.008       0
   14057 TIP3 4605 TIP3 H2   HT            0.417         1.008       0
   14058 TIP3 4606 TIP3 OH2  OT           -0.834       15.9994       0
   14059 TIP3 4606 TIP3 H1   HT            0.417         1.008       0
   14060 TIP3 4606 TIP3 H2   HT            0.417         1.008       0
   14061 TIP3 4607 TIP3 OH2  OT           -0.834       15.9994       0
   14062 TIP3 4607 TIP3 H1   HT            0.417         1.008       0
   14063 TIP3 4607 TIP3 H2   HT            0.417         1.008       0
   14064 TIP3 4608 TIP3 OH2  OT           -0.834       15.9994       0
   14065 TIP3 4608 TIP3 H1   HT            0.417         1.008       0
   14066 TIP3 4608 TIP3 H2   HT            0.417         1.008       0
   14067 TIP3 4609 TIP3 OH2  OT           -0.834       15.9994       0
   14068 TIP3 4609 TIP3 H1   HT            0.417         1.008       0
   14069 TIP3 4609 TIP3 H2   HT            0.417         1.008       0
   14070 TIP3 4610 TIP3 OH2  OT           -0.834       15.9994       0
   14071 TIP3 4610 TIP3 H1   HT            0.417         1.008       0
   14072 TIP3 4610 TIP3 H2   HT            0.417         1.008       0
   14073 TIP3 4611 TIP3 OH2  OT           -0.834       15.9994       0
   14074 TIP3 4611 TIP3 H1   HT            0.417         1.008       0
   14075 TIP3 4611 TIP3 H2   HT            0.417         1.008       0
   14076 TIP3 4612 TIP3 OH2  OT           -0.834       15.9994       0
   14077 TIP3 4612 TIP3 H1   HT            0.417         1.008       0
   14078 TIP3 4612 TIP3 H2   HT            0.417         1.008       0
   14079 TIP3 4613 TIP3 OH2  OT           -0.834       15.9994       0
   14080 TIP3 4613 TIP3 H1   HT            0.417         1.008       0
   14081 TIP3 4613 TIP3 H2   HT            0.417         1.008       0
   14082 TIP3 4614 TIP3 OH2  OT           -0.834       15.9994       0
   14083 TIP3 4614 TIP3 H1   HT            0.417         1.008       0
   14084 TIP3 4614 TIP3 H2   HT            0.417         1.008       0
   14085 TIP3 4615 TIP3 OH2  OT           -0.834       15.9994       0
   14086 TIP3 4615 TIP3 H1   HT            0.417         1.008       0
   14087 TIP3 4615 TIP3 H2   HT            0.417         1.008       0
   14088 TIP3 4616 TIP3 OH2  OT           -0.834       15.9994       0
   14089 TIP3 4616 TIP3 H1   HT            0.417         1.008       0
   14090 TIP3 4616 TIP3 H2   HT            0.417         1.008       0
   14091 TIP3 4617 TIP3 OH2  OT           -0.834       15.9994       0
   14092 TIP3 4617 TIP3 H1   HT            0.417         1.008       0
   14093 TIP3 4617 TIP3 H2   HT            0.417         1.008       0
   14094 TIP3 4618 TIP3 OH2  OT           -0.834       15.9994       0
   14095 TIP3 4618 TIP3 H1   HT            0.417         1.008       0
   14096 TIP3 4618 TIP3 H2   HT            0.417         1.008       0
   14097 TIP3 4619 TIP3 OH2  OT           -0.834       15.9994       0
   14098 TIP3 4619 TIP3 H1   HT            0.417         1.008       0
   14099 TIP3 4619 TIP3 H2   HT            0.417         1.008       0
   14100 TIP3 4620 TIP3 OH2  OT           -0.834       15.9994       0
   14101 TIP3 4620 TIP3 H1   HT            0.417         1.008       0
   14102 TIP3 4620 TIP3 H2   HT            0.417         1.008       0
   14103 TIP3 4621 TIP3 OH2  OT           -0.834       15.9994       0
   14104 TIP3 4621 TIP3 H1   HT            0.417         1.008       0
   14105 TIP3 4621 TIP3 H2   HT            0.417         1.008       0
   14106 TIP3 4622 TIP3 OH2  OT           -0.834       15.9994       0
   14107 TIP3 4622 TIP3 H1   HT            0.417         1.008       0
   14108 TIP3 4622 TIP3 H2   HT            0.417         1.008       0
   14109 TIP3 4623 TIP3 OH2  OT           -0.834       15.9994       0
   14110 TIP3 4623 TIP3 H1   HT            0.417         1.008       0
   14111 TIP3 4623 TIP3 H2   HT            0.417         1.008       0
   14112 TIP3 4624 TIP3 OH2  OT           -0.834       15.9994       0
   14113 TIP3 4624 TIP3 H1   HT            0.417         1.008       0
   14114 TIP3 4624 TIP3 H2   HT            0.417         1.008       0
   14115 TIP3 4625 TIP3 OH2  OT           -0.834       15.9994       0
   14116 TIP3 4625 TIP3 H1   HT            0.417         1.008       0
   14117 TIP3 4625 TIP3 H2   HT            0.417         1.008       0
   14118 TIP3 4626 TIP3 OH2  OT           -0.834       15.9994       0
   14119 TIP3 4626 TIP3 H1   HT            0.417         1.008       0
   14120 TIP3 4626 TIP3 H2   HT            0.417         1.008       0
   14121 TIP3 4627 TIP3 OH2  OT           -0.834       15.9994       0
   14122 TIP3 4627 TIP3 H1   HT            0.417         1.008       0
   14123 TIP3 4627 TIP3 H2   HT            0.417         1.008       0
   14124 TIP3 4628 TIP3 OH2  OT           -0.834       15.9994       0
   14125 TIP3 4628 TIP3 H1   HT            0.417         1.008       0
   14126 TIP3 4628 TIP3 H2   HT            0.417         1.008       0
   14127 TIP3 4629 TIP3 OH2  OT           -0.834       15.9994       0
   14128 TIP3 4629 TIP3 H1   HT            0.417         1.008       0
   14129 TIP3 4629 TIP3 H2   HT            0.417         1.008       0
   14130 TIP3 4630 TIP3 OH2  OT           -0.834       15.9994       0
   14131 TIP3 4630 TIP3 H1   HT            0.417         1.008       0
   14132 TIP3 4630 TIP3 H2   HT            0.417         1.008       0
   14133 TIP3 4631 TIP3 OH2  OT           -0.834       15.9994       0
   14134 TIP3 4631 TIP3 H1   HT            0.417         1.008       0
   14135 TIP3 4631 TIP3 H2   HT            0.417         1.008       0
   14136 TIP3 4632 TIP3 OH2  OT           -0.834       15.9994       0
   14137 TIP3 4632 TIP3 H1   HT            0.417         1.008       0
   14138 TIP3 4632 TIP3 H2   HT            0.417         1.008       0
   14139 TIP3 4633 TIP3 OH2  OT           -0.834       15.9994       0
   14140 TIP3 4633 TIP3 H1   HT            0.417         1.008       0
   14141 TIP3 4633 TIP3 H2   HT            0.417         1.008       0
   14142 TIP3 4634 TIP3 OH2  OT           -0.834       15.9994       0
   14143 TIP3 4634 TIP3 H1   HT            0.417         1.008       0
   14144 TIP3 4634 TIP3 H2   HT            0.417         1.008       0
   14145 TIP3 4635 TIP3 OH2  OT           -0.834       15.9994       0
   14146 TIP3 4635 TIP3 H1   HT            0.417         1.008       0
   14147 TIP3 4635 TIP3 H2   HT            0.417         1.008       0
   14148 TIP3 4636 TIP3 OH2  OT           -0.834       15.9994       0
   14149 TIP3 4636 TIP3 H1   HT            0.417         1.008       0
   14150 TIP3 4636 TIP3 H2   HT            0.417         1.008       0
   14151 TIP3 4637 TIP3 OH2  OT           -0.834       15.9994       0
   14152 TIP3 4637 TIP3 H1   HT            0.417         1.008       0
   14153 TIP3 4637 TIP3 H2   HT            0.417         1.008       0
   14154 TIP3 4638 TIP3 OH2  OT           -0.834       15.9994       0
   14155 TIP3 4638 TIP3 H1   HT            0.417         1.008       0
   14156 TIP3 4638 TIP3 H2   HT            0.417         1.008       0
   14157 TIP3 4639 TIP3 OH2  OT           -0.834       15.9994       0
   14158 TIP3 4639 TIP3 H1   HT            0.417         1.008       0
   14159 TIP3 4639 TIP3 H2   HT            0.417         1.008       0
   14160 TIP3 4640 TIP3 OH2  OT           -0.834       15.9994       0
   14161 TIP3 4640 TIP3 H1   HT            0.417         1.008       0
   14162 TIP3 4640 TIP3 H2   HT            0.417         1.008       0
   14163 TIP3 4641 TIP3 OH2  OT           -0.834       15.9994       0
   14164 TIP3 4641 TIP3 H1   HT            0.417         1.008       0
   14165 TIP3 4641 TIP3 H2   HT            0.417         1.008       0
   14166 TIP3 4642 TIP3 OH2  OT           -0.834       15.9994       0
   14167 TIP3 4642 TIP3 H1   HT            0.417         1.008       0
   14168 TIP3 4642 TIP3 H2   HT            0.417         1.008       0
   14169 TIP3 4643 TIP3 OH2  OT           -0.834       15.9994       0
   14170 TIP3 4643 TIP3 H1   HT            0.417         1.008       0
   14171 TIP3 4643 TIP3 H2   HT            0.417         1.008       0
   14172 TIP3 4644 TIP3 OH2  OT           -0.834       15.9994       0
   14173 TIP3 4644 TIP3 H1   HT            0.417         1.008       0
   14174 TIP3 4644 TIP3 H2   HT            0.417         1.008       0
   14175 TIP3 4645 TIP3 OH2  OT           -0.834       15.9994       0
   14176 TIP3 4645 TIP3 H1   HT            0.417         1.008       0
   14177 TIP3 4645 TIP3 H2   HT            0.417         1.008       0
   14178 TIP3 4646 TIP3 OH2  OT           -0.834       15.9994       0
   14179 TIP3 4646 TIP3 H1   HT            0.417         1.008       0
   14180 TIP3 4646 TIP3 H2   HT            0.417         1.008       0
   14181 TIP3 4647 TIP3 OH2  OT           -0.834       15.9994       0
   14182 TIP3 4647 TIP3 H1   HT            0.417         1.008       0
   14183 TIP3 4647 TIP3 H2   HT            0.417         1.008       0
   14184 TIP3 4648 TIP3 OH2  OT           -0.834       15.9994       0
   14185 TIP3 4648 TIP3 H1   HT            0.417         1.008       0
   14186 TIP3 4648 TIP3 H2   HT            0.417         1.008       0
   14187 TIP3 4649 TIP3 OH2  OT           -0.834       15.9994       0
   14188 TIP3 4649 TIP3 H1   HT            0.417         1.008       0
   14189 TIP3 4649 TIP3 H2   HT            0.417         1.008       0
   14190 TIP3 4650 TIP3 OH2  OT           -0.834       15.9994       0
   14191 TIP3 4650 TIP3 H1   HT            0.417         1.008       0
   14192 TIP3 4650 TIP3 H2   HT            0.417         1.008       0
   14193 TIP3 4651 TIP3 OH2  OT           -0.834       15.9994       0
   14194 TIP3 4651 TIP3 H1   HT            0.417         1.008       0
   14195 TIP3 4651 TIP3 H2   HT            0.417         1.008       0
   14196 TIP3 4652 TIP3 OH2  OT           -0.834       15.9994       0
   14197 TIP3 4652 TIP3 H1   HT            0.417         1.008       0
   14198 TIP3 4652 TIP3 H2   HT            0.417         1.008       0
   14199 TIP3 4653 TIP3 OH2  OT           -0.834       15.9994       0
   14200 TIP3 4653 TIP3 H1   HT            0.417         1.008       0
   14201 TIP3 4653 TIP3 H2   HT            0.417         1.008       0
   14202 TIP3 4654 TIP3 OH2  OT           -0.834       15.9994       0
   14203 TIP3 4654 TIP3 H1   HT            0.417         1.008       0
   14204 TIP3 4654 TIP3 H2   HT            0.417         1.008       0
   14205 TIP3 4655 TIP3 OH2  OT           -0.834       15.9994       0
   14206 TIP3 4655 TIP3 H1   HT            0.417         1.008       0
   14207 TIP3 4655 TIP3 H2   HT            0.417         1.008       0
   14208 TIP3 4656 TIP3 OH2  OT           -0.834       15.9994       0
   14209 TIP3 4656 TIP3 H1   HT            0.417         1.008       0
   14210 TIP3 4656 TIP3 H2   HT            0.417         1.008       0
   14211 TIP3 4657 TIP3 OH2  OT           -0.834       15.9994       0
   14212 TIP3 4657 TIP3 H1   HT            0.417         1.008       0
   14213 TIP3 4657 TIP3 H2   HT            0.417         1.008       0
   14214 TIP3 4658 TIP3 OH2  OT           -0.834       15.9994       0
   14215 TIP3 4658 TIP3 H1   HT            0.417         1.008       0
   14216 TIP3 4658 TIP3 H2   HT            0.417         1.008       0
   14217 TIP3 4659 TIP3 OH2  OT           -0.834       15.9994       0
   14218 TIP3 4659 TIP3 H1   HT            0.417         1.008       0
   14219 TIP3 4659 TIP3 H2   HT            0.417         1.008       0
   14220 TIP3 4660 TIP3 OH2  OT           -0.834       15.9994       0
   14221 TIP3 4660 TIP3 H1   HT            0.417         1.008       0
   14222 TIP3 4660 TIP3 H2   HT            0.417         1.008       0
   14223 TIP3 4661 TIP3 OH2  OT           -0.834       15.9994       0
   14224 TIP3 4661 TIP3 H1   HT            0.417         1.008       0
   14225 TIP3 4661 TIP3 H2   HT            0.417         1.008       0
   14226 TIP3 4662 TIP3 OH2  OT           -0.834       15.9994       0
   14227 TIP3 4662 TIP3 H1   HT            0.417         1.008       0
   14228 TIP3 4662 TIP3 H2   HT            0.417         1.008       0
   14229 TIP3 4663 TIP3 OH2  OT           -0.834       15.9994       0
   14230 TIP3 4663 TIP3 H1   HT            0.417         1.008       0
   14231 TIP3 4663 TIP3 H2   HT            0.417         1.008       0
   14232 TIP3 4664 TIP3 OH2  OT           -0.834       15.9994       0
   14233 TIP3 4664 TIP3 H1   HT            0.417         1.008       0
   14234 TIP3 4664 TIP3 H2   HT            0.417         1.008       0
   14235 TIP3 4665 TIP3 OH2  OT           -0.834       15.9994       0
   14236 TIP3 4665 TIP3 H1   HT            0.417         1.008       0
   14237 TIP3 4665 TIP3 H2   HT            0.417         1.008       0
   14238 TIP3 4666 TIP3 OH2  OT           -0.834       15.9994       0
   14239 TIP3 4666 TIP3 H1   HT            0.417         1.008       0
   14240 TIP3 4666 TIP3 H2   HT            0.417         1.008       0
   14241 TIP3 4667 TIP3 OH2  OT           -0.834       15.9994       0
   14242 TIP3 4667 TIP3 H1   HT            0.417         1.008       0
   14243 TIP3 4667 TIP3 H2   HT            0.417         1.008       0
   14244 TIP3 4668 TIP3 OH2  OT           -0.834       15.9994       0
   14245 TIP3 4668 TIP3 H1   HT            0.417         1.008       0
   14246 TIP3 4668 TIP3 H2   HT            0.417         1.008       0
   14247 TIP3 4669 TIP3 OH2  OT           -0.834       15.9994       0
   14248 TIP3 4669 TIP3 H1   HT            0.417         1.008       0
   14249 TIP3 4669 TIP3 H2   HT            0.417         1.008       0
   14250 TIP3 4670 TIP3 OH2  OT           -0.834       15.9994       0
   14251 TIP3 4670 TIP3 H1   HT            0.417         1.008       0
   14252 TIP3 4670 TIP3 H2   HT            0.417         1.008       0
   14253 TIP3 4671 TIP3 OH2  OT           -0.834       15.9994       0
   14254 TIP3 4671 TIP3 H1   HT            0.417         1.008       0
   14255 TIP3 4671 TIP3 H2   HT            0.417         1.008       0
   14256 TIP3 4672 TIP3 OH2  OT           -0.834       15.9994       0
   14257 TIP3 4672 TIP3 H1   HT            0.417         1.008       0
   14258 TIP3 4672 TIP3 H2   HT            0.417         1.008       0
   14259 TIP3 4673 TIP3 OH2  OT           -0.834       15.9994       0
   14260 TIP3 4673 TIP3 H1   HT            0.417         1.008       0
   14261 TIP3 4673 TIP3 H2   HT            0.417         1.008       0
   14262 TIP3 4674 TIP3 OH2  OT           -0.834       15.9994       0
   14263 TIP3 4674 TIP3 H1   HT            0.417         1.008       0
   14264 TIP3 4674 TIP3 H2   HT            0.417         1.008       0
   14265 TIP3 4675 TIP3 OH2  OT           -0.834       15.9994       0
   14266 TIP3 4675 TIP3 H1   HT            0.417         1.008       0
   14267 TIP3 4675 TIP3 H2   HT            0.417         1.008       0
   14268 TIP3 4676 TIP3 OH2  OT           -0.834       15.9994       0
   14269 TIP3 4676 TIP3 H1   HT            0.417         1.008       0
   14270 TIP3 4676 TIP3 H2   HT            0.417         1.008       0
   14271 TIP3 4677 TIP3 OH2  OT           -0.834       15.9994       0
   14272 TIP3 4677 TIP3 H1   HT            0.417         1.008       0
   14273 TIP3 4677 TIP3 H2   HT            0.417         1.008       0
   14274 TIP3 4678 TIP3 OH2  OT           -0.834       15.9994       0
   14275 TIP3 4678 TIP3 H1   HT            0.417         1.008       0
   14276 TIP3 4678 TIP3 H2   HT            0.417         1.008       0
   14277 TIP3 4679 TIP3 OH2  OT           -0.834       15.9994       0
   14278 TIP3 4679 TIP3 H1   HT            0.417         1.008       0
   14279 TIP3 4679 TIP3 H2   HT            0.417         1.008       0
   14280 TIP3 4680 TIP3 OH2  OT           -0.834       15.9994       0
   14281 TIP3 4680 TIP3 H1   HT            0.417         1.008       0
   14282 TIP3 4680 TIP3 H2   HT            0.417         1.008       0
   14283 TIP3 4681 TIP3 OH2  OT           -0.834       15.9994       0
   14284 TIP3 4681 TIP3 H1   HT            0.417         1.008       0
   14285 TIP3 4681 TIP3 H2   HT            0.417         1.008       0
   14286 TIP3 4682 TIP3 OH2  OT           -0.834       15.9994       0
   14287 TIP3 4682 TIP3 H1   HT            0.417         1.008       0
   14288 TIP3 4682 TIP3 H2   HT            0.417         1.008       0
   14289 TIP3 4683 TIP3 OH2  OT           -0.834       15.9994       0
   14290 TIP3 4683 TIP3 H1   HT            0.417         1.008       0
   14291 TIP3 4683 TIP3 H2   HT            0.417         1.008       0
   14292 TIP3 4684 TIP3 OH2  OT           -0.834       15.9994       0
   14293 TIP3 4684 TIP3 H1   HT            0.417         1.008       0
   14294 TIP3 4684 TIP3 H2   HT            0.417         1.008       0
   14295 TIP3 4685 TIP3 OH2  OT           -0.834       15.9994       0
   14296 TIP3 4685 TIP3 H1   HT            0.417         1.008       0
   14297 TIP3 4685 TIP3 H2   HT            0.417         1.008       0
   14298 TIP3 4686 TIP3 OH2  OT           -0.834       15.9994       0
   14299 TIP3 4686 TIP3 H1   HT            0.417         1.008       0
   14300 TIP3 4686 TIP3 H2   HT            0.417         1.008       0
   14301 TIP3 4687 TIP3 OH2  OT           -0.834       15.9994       0
   14302 TIP3 4687 TIP3 H1   HT            0.417         1.008       0
   14303 TIP3 4687 TIP3 H2   HT            0.417         1.008       0
   14304 TIP3 4688 TIP3 OH2  OT           -0.834       15.9994       0
   14305 TIP3 4688 TIP3 H1   HT            0.417         1.008       0
   14306 TIP3 4688 TIP3 H2   HT            0.417         1.008       0
   14307 TIP3 4689 TIP3 OH2  OT           -0.834       15.9994       0
   14308 TIP3 4689 TIP3 H1   HT            0.417         1.008       0
   14309 TIP3 4689 TIP3 H2   HT            0.417         1.008       0
   14310 TIP3 4690 TIP3 OH2  OT           -0.834       15.9994       0
   14311 TIP3 4690 TIP3 H1   HT            0.417         1.008       0
   14312 TIP3 4690 TIP3 H2   HT            0.417         1.008       0
   14313 TIP3 4691 TIP3 OH2  OT           -0.834       15.9994       0
   14314 TIP3 4691 TIP3 H1   HT            0.417         1.008       0
   14315 TIP3 4691 TIP3 H2   HT            0.417         1.008       0
   14316 TIP3 4692 TIP3 OH2  OT           -0.834       15.9994       0
   14317 TIP3 4692 TIP3 H1   HT            0.417         1.008       0
   14318 TIP3 4692 TIP3 H2   HT            0.417         1.008       0
   14319 TIP3 4693 TIP3 OH2  OT           -0.834       15.9994       0
   14320 TIP3 4693 TIP3 H1   HT            0.417         1.008       0
   14321 TIP3 4693 TIP3 H2   HT            0.417         1.008       0
   14322 TIP3 4694 TIP3 OH2  OT           -0.834       15.9994       0
   14323 TIP3 4694 TIP3 H1   HT            0.417         1.008       0
   14324 TIP3 4694 TIP3 H2   HT            0.417         1.008       0
   14325 TIP3 4695 TIP3 OH2  OT           -0.834       15.9994       0
   14326 TIP3 4695 TIP3 H1   HT            0.417         1.008       0
   14327 TIP3 4695 TIP3 H2   HT            0.417         1.008       0
   14328 TIP3 4696 TIP3 OH2  OT           -0.834       15.9994       0
   14329 TIP3 4696 TIP3 H1   HT            0.417         1.008       0
   14330 TIP3 4696 TIP3 H2   HT            0.417         1.008       0
   14331 TIP3 4697 TIP3 OH2  OT           -0.834       15.9994       0
   14332 TIP3 4697 TIP3 H1   HT            0.417         1.008       0
   14333 TIP3 4697 TIP3 H2   HT            0.417         1.008       0
   14334 TIP3 4698 TIP3 OH2  OT           -0.834       15.9994       0
   14335 TIP3 4698 TIP3 H1   HT            0.417         1.008       0
   14336 TIP3 4698 TIP3 H2   HT            0.417         1.008       0
   14337 TIP3 4699 TIP3 OH2  OT           -0.834       15.9994       0
   14338 TIP3 4699 TIP3 H1   HT            0.417         1.008       0
   14339 TIP3 4699 TIP3 H2   HT            0.417         1.008       0
   14340 TIP3 4700 TIP3 OH2  OT           -0.834       15.9994       0
   14341 TIP3 4700 TIP3 H1   HT            0.417         1.008       0
   14342 TIP3 4700 TIP3 H2   HT            0.417         1.008       0
   14343 TIP3 4701 TIP3 OH2  OT           -0.834       15.9994       0
   14344 TIP3 4701 TIP3 H1   HT            0.417         1.008       0
   14345 TIP3 4701 TIP3 H2   HT            0.417         1.008       0
   14346 TIP3 4702 TIP3 OH2  OT           -0.834       15.9994       0
   14347 TIP3 4702 TIP3 H1   HT            0.417         1.008       0
   14348 TIP3 4702 TIP3 H2   HT            0.417         1.008       0
   14349 TIP3 4703 TIP3 OH2  OT           -0.834       15.9994       0
   14350 TIP3 4703 TIP3 H1   HT            0.417         1.008       0
   14351 TIP3 4703 TIP3 H2   HT            0.417         1.008       0
   14352 TIP3 4704 TIP3 OH2  OT           -0.834       15.9994       0
   14353 TIP3 4704 TIP3 H1   HT            0.417         1.008       0
   14354 TIP3 4704 TIP3 H2   HT            0.417         1.008       0
   14355 TIP3 4705 TIP3 OH2  OT           -0.834       15.9994       0
   14356 TIP3 4705 TIP3 H1   HT            0.417         1.008       0
   14357 TIP3 4705 TIP3 H2   HT            0.417         1.008       0
   14358 TIP3 4706 TIP3 OH2  OT           -0.834       15.9994       0
   14359 TIP3 4706 TIP3 H1   HT            0.417         1.008       0
   14360 TIP3 4706 TIP3 H2   HT            0.417         1.008       0
   14361 TIP3 4707 TIP3 OH2  OT           -0.834       15.9994       0
   14362 TIP3 4707 TIP3 H1   HT            0.417         1.008       0
   14363 TIP3 4707 TIP3 H2   HT            0.417         1.008       0
   14364 TIP3 4708 TIP3 OH2  OT           -0.834       15.9994       0
   14365 TIP3 4708 TIP3 H1   HT            0.417         1.008       0
   14366 TIP3 4708 TIP3 H2   HT            0.417         1.008       0
   14367 TIP3 4709 TIP3 OH2  OT           -0.834       15.9994       0
   14368 TIP3 4709 TIP3 H1   HT            0.417         1.008       0
   14369 TIP3 4709 TIP3 H2   HT            0.417         1.008       0
   14370 TIP3 4710 TIP3 OH2  OT           -0.834       15.9994       0
   14371 TIP3 4710 TIP3 H1   HT            0.417         1.008       0
   14372 TIP3 4710 TIP3 H2   HT            0.417         1.008       0
   14373 TIP3 4711 TIP3 OH2  OT           -0.834       15.9994       0
   14374 TIP3 4711 TIP3 H1   HT            0.417         1.008       0
   14375 TIP3 4711 TIP3 H2   HT            0.417         1.008       0
   14376 TIP3 4712 TIP3 OH2  OT           -0.834       15.9994       0
   14377 TIP3 4712 TIP3 H1   HT            0.417         1.008       0
   14378 TIP3 4712 TIP3 H2   HT            0.417         1.008       0
   14379 TIP3 4713 TIP3 OH2  OT           -0.834       15.9994       0
   14380 TIP3 4713 TIP3 H1   HT            0.417         1.008       0
   14381 TIP3 4713 TIP3 H2   HT            0.417         1.008       0
   14382 TIP3 4714 TIP3 OH2  OT           -0.834       15.9994       0
   14383 TIP3 4714 TIP3 H1   HT            0.417         1.008       0
   14384 TIP3 4714 TIP3 H2   HT            0.417         1.008       0
   14385 TIP3 4715 TIP3 OH2  OT           -0.834       15.9994       0
   14386 TIP3 4715 TIP3 H1   HT            0.417         1.008       0
   14387 TIP3 4715 TIP3 H2   HT            0.417         1.008       0
   14388 TIP3 4716 TIP3 OH2  OT           -0.834       15.9994       0
   14389 TIP3 4716 TIP3 H1   HT            0.417         1.008       0
   14390 TIP3 4716 TIP3 H2   HT            0.417         1.008       0
   14391 TIP3 4717 TIP3 OH2  OT           -0.834       15.9994       0
   14392 TIP3 4717 TIP3 H1   HT            0.417         1.008       0
   14393 TIP3 4717 TIP3 H2   HT            0.417         1.008       0
   14394 TIP3 4718 TIP3 OH2  OT           -0.834       15.9994       0
   14395 TIP3 4718 TIP3 H1   HT            0.417         1.008       0
   14396 TIP3 4718 TIP3 H2   HT            0.417         1.008       0
   14397 TIP3 4719 TIP3 OH2  OT           -0.834       15.9994       0
   14398 TIP3 4719 TIP3 H1   HT            0.417         1.008       0
   14399 TIP3 4719 TIP3 H2   HT            0.417         1.008       0
   14400 TIP3 4720 TIP3 OH2  OT           -0.834       15.9994       0
   14401 TIP3 4720 TIP3 H1   HT            0.417         1.008       0
   14402 TIP3 4720 TIP3 H2   HT            0.417         1.008       0
   14403 TIP3 4721 TIP3 OH2  OT           -0.834       15.9994       0
   14404 TIP3 4721 TIP3 H1   HT            0.417         1.008       0
   14405 TIP3 4721 TIP3 H2   HT            0.417         1.008       0
   14406 TIP3 4722 TIP3 OH2  OT           -0.834       15.9994       0
   14407 TIP3 4722 TIP3 H1   HT            0.417         1.008       0
   14408 TIP3 4722 TIP3 H2   HT            0.417         1.008       0
   14409 TIP3 4723 TIP3 OH2  OT           -0.834       15.9994       0
   14410 TIP3 4723 TIP3 H1   HT            0.417         1.008       0
   14411 TIP3 4723 TIP3 H2   HT            0.417         1.008       0
   14412 TIP3 4724 TIP3 OH2  OT           -0.834       15.9994       0
   14413 TIP3 4724 TIP3 H1   HT            0.417         1.008       0
   14414 TIP3 4724 TIP3 H2   HT            0.417         1.008       0
   14415 TIP3 4725 TIP3 OH2  OT           -0.834       15.9994       0
   14416 TIP3 4725 TIP3 H1   HT            0.417         1.008       0
   14417 TIP3 4725 TIP3 H2   HT            0.417         1.008       0
   14418 TIP3 4726 TIP3 OH2  OT           -0.834       15.9994       0
   14419 TIP3 4726 TIP3 H1   HT            0.417         1.008       0
   14420 TIP3 4726 TIP3 H2   HT            0.417         1.008       0
   14421 TIP3 4727 TIP3 OH2  OT           -0.834       15.9994       0
   14422 TIP3 4727 TIP3 H1   HT            0.417         1.008       0
   14423 TIP3 4727 TIP3 H2   HT            0.417         1.008       0
   14424 TIP3 4728 TIP3 OH2  OT           -0.834       15.9994       0
   14425 TIP3 4728 TIP3 H1   HT            0.417         1.008       0
   14426 TIP3 4728 TIP3 H2   HT            0.417         1.008       0
   14427 TIP3 4729 TIP3 OH2  OT           -0.834       15.9994       0
   14428 TIP3 4729 TIP3 H1   HT            0.417         1.008       0
   14429 TIP3 4729 TIP3 H2   HT            0.417         1.008       0
   14430 TIP3 4730 TIP3 OH2  OT           -0.834       15.9994       0
   14431 TIP3 4730 TIP3 H1   HT            0.417         1.008       0
   14432 TIP3 4730 TIP3 H2   HT            0.417         1.008       0
   14433 TIP3 4731 TIP3 OH2  OT           -0.834       15.9994       0
   14434 TIP3 4731 TIP3 H1   HT            0.417         1.008       0
   14435 TIP3 4731 TIP3 H2   HT            0.417         1.008       0
   14436 TIP3 4732 TIP3 OH2  OT           -0.834       15.9994       0
   14437 TIP3 4732 TIP3 H1   HT            0.417         1.008       0
   14438 TIP3 4732 TIP3 H2   HT            0.417         1.008       0
   14439 TIP3 4733 TIP3 OH2  OT           -0.834       15.9994       0
   14440 TIP3 4733 TIP3 H1   HT            0.417         1.008       0
   14441 TIP3 4733 TIP3 H2   HT            0.417         1.008       0
   14442 TIP3 4734 TIP3 OH2  OT           -0.834       15.9994       0
   14443 TIP3 4734 TIP3 H1   HT            0.417         1.008       0
   14444 TIP3 4734 TIP3 H2   HT            0.417         1.008       0
   14445 TIP3 4735 TIP3 OH2  OT           -0.834       15.9994       0
   14446 TIP3 4735 TIP3 H1   HT            0.417         1.008       0
   14447 TIP3 4735 TIP3 H2   HT            0.417         1.008       0
   14448 TIP3 4736 TIP3 OH2  OT           -0.834       15.9994       0
   14449 TIP3 4736 TIP3 H1   HT            0.417         1.008       0
   14450 TIP3 4736 TIP3 H2   HT            0.417         1.008       0
   14451 TIP3 4737 TIP3 OH2  OT           -0.834       15.9994       0
   14452 TIP3 4737 TIP3 H1   HT            0.417         1.008       0
   14453 TIP3 4737 TIP3 H2   HT            0.417         1.008       0
   14454 TIP3 4738 TIP3 OH2  OT           -0.834       15.9994       0
   14455 TIP3 4738 TIP3 H1   HT            0.417         1.008       0
   14456 TIP3 4738 TIP3 H2   HT            0.417         1.008       0
   14457 TIP3 4739 TIP3 OH2  OT           -0.834       15.9994       0
   14458 TIP3 4739 TIP3 H1   HT            0.417         1.008       0
   14459 TIP3 4739 TIP3 H2   HT            0.417         1.008       0
   14460 TIP3 4740 TIP3 OH2  OT           -0.834       15.9994       0
   14461 TIP3 4740 TIP3 H1   HT            0.417         1.008       0
   14462 TIP3 4740 TIP3 H2   HT            0.417         1.008       0
   14463 TIP3 4741 TIP3 OH2  OT           -0.834       15.9994       0
   14464 TIP3 4741 TIP3 H1   HT            0.417         1.008       0
   14465 TIP3 4741 TIP3 H2   HT            0.417         1.008       0
   14466 TIP3 4742 TIP3 OH2  OT           -0.834       15.9994       0
   14467 TIP3 4742 TIP3 H1   HT            0.417         1.008       0
   14468 TIP3 4742 TIP3 H2   HT            0.417         1.008       0
   14469 TIP3 4743 TIP3 OH2  OT           -0.834       15.9994       0
   14470 TIP3 4743 TIP3 H1   HT            0.417         1.008       0
   14471 TIP3 4743 TIP3 H2   HT            0.417         1.008       0
   14472 TIP3 4744 TIP3 OH2  OT           -0.834       15.9994       0
   14473 TIP3 4744 TIP3 H1   HT            0.417         1.008       0
   14474 TIP3 4744 TIP3 H2   HT            0.417         1.008       0
   14475 TIP3 4745 TIP3 OH2  OT           -0.834       15.9994       0
   14476 TIP3 4745 TIP3 H1   HT            0.417         1.008       0
   14477 TIP3 4745 TIP3 H2   HT            0.417         1.008       0
   14478 TIP3 4746 TIP3 OH2  OT           -0.834       15.9994       0
   14479 TIP3 4746 TIP3 H1   HT            0.417         1.008       0
   14480 TIP3 4746 TIP3 H2   HT            0.417         1.008       0
   14481 TIP3 4747 TIP3 OH2  OT           -0.834       15.9994       0
   14482 TIP3 4747 TIP3 H1   HT            0.417         1.008       0
   14483 TIP3 4747 TIP3 H2   HT            0.417         1.008       0
   14484 TIP3 4748 TIP3 OH2  OT           -0.834       15.9994       0
   14485 TIP3 4748 TIP3 H1   HT            0.417         1.008       0
   14486 TIP3 4748 TIP3 H2   HT            0.417         1.008       0
   14487 TIP3 4749 TIP3 OH2  OT           -0.834       15.9994       0
   14488 TIP3 4749 TIP3 H1   HT            0.417         1.008       0
   14489 TIP3 4749 TIP3 H2   HT            0.417         1.008       0
   14490 TIP3 4750 TIP3 OH2  OT           -0.834       15.9994       0
   14491 TIP3 4750 TIP3 H1   HT            0.417         1.008       0
   14492 TIP3 4750 TIP3 H2   HT            0.417         1.008       0
   14493 TIP3 4751 TIP3 OH2  OT           -0.834       15.9994       0
   14494 TIP3 4751 TIP3 H1   HT            0.417         1.008       0
   14495 TIP3 4751 TIP3 H2   HT            0.417         1.008       0
   14496 TIP3 4752 TIP3 OH2  OT           -0.834       15.9994       0
   14497 TIP3 4752 TIP3 H1   HT            0.417         1.008       0
   14498 TIP3 4752 TIP3 H2   HT            0.417         1.008       0
   14499 TIP3 4753 TIP3 OH2  OT           -0.834       15.9994       0
   14500 TIP3 4753 TIP3 H1   HT            0.417         1.008       0
   14501 TIP3 4753 TIP3 H2   HT            0.417         1.008       0
   14502 TIP3 4754 TIP3 OH2  OT           -0.834       15.9994       0
   14503 TIP3 4754 TIP3 H1   HT            0.417         1.008       0
   14504 TIP3 4754 TIP3 H2   HT            0.417         1.008       0
   14505 TIP3 4755 TIP3 OH2  OT           -0.834       15.9994       0
   14506 TIP3 4755 TIP3 H1   HT            0.417         1.008       0
   14507 TIP3 4755 TIP3 H2   HT            0.417         1.008       0
   14508 TIP3 4756 TIP3 OH2  OT           -0.834       15.9994       0
   14509 TIP3 4756 TIP3 H1   HT            0.417         1.008       0
   14510 TIP3 4756 TIP3 H2   HT            0.417         1.008       0
   14511 TIP3 4757 TIP3 OH2  OT           -0.834       15.9994       0
   14512 TIP3 4757 TIP3 H1   HT            0.417         1.008       0
   14513 TIP3 4757 TIP3 H2   HT            0.417         1.008       0
   14514 TIP3 4758 TIP3 OH2  OT           -0.834       15.9994       0
   14515 TIP3 4758 TIP3 H1   HT            0.417         1.008       0
   14516 TIP3 4758 TIP3 H2   HT            0.417         1.008       0
   14517 TIP3 4759 TIP3 OH2  OT           -0.834       15.9994       0
   14518 TIP3 4759 TIP3 H1   HT            0.417         1.008       0
   14519 TIP3 4759 TIP3 H2   HT            0.417         1.008       0
   14520 TIP3 4760 TIP3 OH2  OT           -0.834       15.9994       0
   14521 TIP3 4760 TIP3 H1   HT            0.417         1.008       0
   14522 TIP3 4760 TIP3 H2   HT            0.417         1.008       0
   14523 TIP3 4761 TIP3 OH2  OT           -0.834       15.9994       0
   14524 TIP3 4761 TIP3 H1   HT            0.417         1.008       0
   14525 TIP3 4761 TIP3 H2   HT            0.417         1.008       0
   14526 TIP3 4762 TIP3 OH2  OT           -0.834       15.9994       0
   14527 TIP3 4762 TIP3 H1   HT            0.417         1.008       0
   14528 TIP3 4762 TIP3 H2   HT            0.417         1.008       0
   14529 TIP3 4763 TIP3 OH2  OT           -0.834       15.9994       0
   14530 TIP3 4763 TIP3 H1   HT            0.417         1.008       0
   14531 TIP3 4763 TIP3 H2   HT            0.417         1.008       0
   14532 TIP3 4764 TIP3 OH2  OT           -0.834       15.9994       0
   14533 TIP3 4764 TIP3 H1   HT            0.417         1.008       0
   14534 TIP3 4764 TIP3 H2   HT            0.417         1.008       0
   14535 TIP3 4765 TIP3 OH2  OT           -0.834       15.9994       0
   14536 TIP3 4765 TIP3 H1   HT            0.417         1.008       0
   14537 TIP3 4765 TIP3 H2   HT            0.417         1.008       0
   14538 TIP3 4766 TIP3 OH2  OT           -0.834       15.9994       0
   14539 TIP3 4766 TIP3 H1   HT            0.417         1.008       0
   14540 TIP3 4766 TIP3 H2   HT            0.417         1.008       0
   14541 TIP3 4767 TIP3 OH2  OT           -0.834       15.9994       0
   14542 TIP3 4767 TIP3 H1   HT            0.417         1.008       0
   14543 TIP3 4767 TIP3 H2   HT            0.417         1.008       0
   14544 TIP3 4768 TIP3 OH2  OT           -0.834       15.9994       0
   14545 TIP3 4768 TIP3 H1   HT            0.417         1.008       0
   14546 TIP3 4768 TIP3 H2   HT            0.417         1.008       0
   14547 TIP3 4769 TIP3 OH2  OT           -0.834       15.9994       0
   14548 TIP3 4769 TIP3 H1   HT            0.417         1.008       0
   14549 TIP3 4769 TIP3 H2   HT            0.417         1.008       0
   14550 TIP3 4770 TIP3 OH2  OT           -0.834       15.9994       0
   14551 TIP3 4770 TIP3 H1   HT            0.417         1.008       0
   14552 TIP3 4770 TIP3 H2   HT            0.417         1.008       0
   14553 TIP3 4771 TIP3 OH2  OT           -0.834       15.9994       0
   14554 TIP3 4771 TIP3 H1   HT            0.417         1.008       0
   14555 TIP3 4771 TIP3 H2   HT            0.417         1.008       0
   14556 TIP3 4772 TIP3 OH2  OT           -0.834       15.9994       0
   14557 TIP3 4772 TIP3 H1   HT            0.417         1.008       0
   14558 TIP3 4772 TIP3 H2   HT            0.417         1.008       0
   14559 TIP3 4773 TIP3 OH2  OT           -0.834       15.9994       0
   14560 TIP3 4773 TIP3 H1   HT            0.417         1.008       0
   14561 TIP3 4773 TIP3 H2   HT            0.417         1.008       0
   14562 TIP3 4774 TIP3 OH2  OT           -0.834       15.9994       0
   14563 TIP3 4774 TIP3 H1   HT            0.417         1.008       0
   14564 TIP3 4774 TIP3 H2   HT            0.417         1.008       0
   14565 TIP3 4775 TIP3 OH2  OT           -0.834       15.9994       0
   14566 TIP3 4775 TIP3 H1   HT            0.417         1.008       0
   14567 TIP3 4775 TIP3 H2   HT            0.417         1.008       0
   14568 TIP3 4776 TIP3 OH2  OT           -0.834       15.9994       0
   14569 TIP3 4776 TIP3 H1   HT            0.417         1.008       0
   14570 TIP3 4776 TIP3 H2   HT            0.417         1.008       0
   14571 TIP3 4777 TIP3 OH2  OT           -0.834       15.9994       0
   14572 TIP3 4777 TIP3 H1   HT            0.417         1.008       0
   14573 TIP3 4777 TIP3 H2   HT            0.417         1.008       0
   14574 TIP3 4778 TIP3 OH2  OT           -0.834       15.9994       0
   14575 TIP3 4778 TIP3 H1   HT            0.417         1.008       0
   14576 TIP3 4778 TIP3 H2   HT            0.417         1.008       0
   14577 TIP3 4779 TIP3 OH2  OT           -0.834       15.9994       0
   14578 TIP3 4779 TIP3 H1   HT            0.417         1.008       0
   14579 TIP3 4779 TIP3 H2   HT            0.417         1.008       0
   14580 TIP3 4780 TIP3 OH2  OT           -0.834       15.9994       0
   14581 TIP3 4780 TIP3 H1   HT            0.417         1.008       0
   14582 TIP3 4780 TIP3 H2   HT            0.417         1.008       0
   14583 TIP3 4781 TIP3 OH2  OT           -0.834       15.9994       0
   14584 TIP3 4781 TIP3 H1   HT            0.417         1.008       0
   14585 TIP3 4781 TIP3 H2   HT            0.417         1.008       0
   14586 TIP3 4782 TIP3 OH2  OT           -0.834       15.9994       0
   14587 TIP3 4782 TIP3 H1   HT            0.417         1.008       0
   14588 TIP3 4782 TIP3 H2   HT            0.417         1.008       0
   14589 TIP3 4783 TIP3 OH2  OT           -0.834       15.9994       0
   14590 TIP3 4783 TIP3 H1   HT            0.417         1.008       0
   14591 TIP3 4783 TIP3 H2   HT            0.417         1.008       0
   14592 TIP3 4784 TIP3 OH2  OT           -0.834       15.9994       0
   14593 TIP3 4784 TIP3 H1   HT            0.417         1.008       0
   14594 TIP3 4784 TIP3 H2   HT            0.417         1.008       0
   14595 TIP3 4785 TIP3 OH2  OT           -0.834       15.9994       0
   14596 TIP3 4785 TIP3 H1   HT            0.417         1.008       0
   14597 TIP3 4785 TIP3 H2   HT            0.417         1.008       0
   14598 TIP3 4786 TIP3 OH2  OT           -0.834       15.9994       0
   14599 TIP3 4786 TIP3 H1   HT            0.417         1.008       0
   14600 TIP3 4786 TIP3 H2   HT            0.417         1.008       0
   14601 TIP3 4787 TIP3 OH2  OT           -0.834       15.9994       0
   14602 TIP3 4787 TIP3 H1   HT            0.417         1.008       0
   14603 TIP3 4787 TIP3 H2   HT            0.417         1.008       0
   14604 TIP3 4788 TIP3 OH2  OT           -0.834       15.9994       0
   14605 TIP3 4788 TIP3 H1   HT            0.417         1.008       0
   14606 TIP3 4788 TIP3 H2   HT            0.417         1.008       0
   14607 TIP3 4789 TIP3 OH2  OT           -0.834       15.9994       0
   14608 TIP3 4789 TIP3 H1   HT            0.417         1.008       0
   14609 TIP3 4789 TIP3 H2   HT            0.417         1.008       0
   14610 TIP3 4790 TIP3 OH2  OT           -0.834       15.9994       0
   14611 TIP3 4790 TIP3 H1   HT            0.417         1.008       0
   14612 TIP3 4790 TIP3 H2   HT            0.417         1.008       0
   14613 TIP3 4791 TIP3 OH2  OT           -0.834       15.9994       0
   14614 TIP3 4791 TIP3 H1   HT            0.417         1.008       0
   14615 TIP3 4791 TIP3 H2   HT            0.417         1.008       0
   14616 TIP3 4792 TIP3 OH2  OT           -0.834       15.9994       0
   14617 TIP3 4792 TIP3 H1   HT            0.417         1.008       0
   14618 TIP3 4792 TIP3 H2   HT            0.417         1.008       0
   14619 TIP3 4793 TIP3 OH2  OT           -0.834       15.9994       0
   14620 TIP3 4793 TIP3 H1   HT            0.417         1.008       0
   14621 TIP3 4793 TIP3 H2   HT            0.417         1.008       0
   14622 TIP3 4794 TIP3 OH2  OT           -0.834       15.9994       0
   14623 TIP3 4794 TIP3 H1   HT            0.417         1.008       0
   14624 TIP3 4794 TIP3 H2   HT            0.417         1.008       0
   14625 TIP3 4795 TIP3 OH2  OT           -0.834       15.9994       0
   14626 TIP3 4795 TIP3 H1   HT            0.417         1.008       0
   14627 TIP3 4795 TIP3 H2   HT            0.417         1.008       0
   14628 TIP3 4796 TIP3 OH2  OT           -0.834       15.9994       0
   14629 TIP3 4796 TIP3 H1   HT            0.417         1.008       0
   14630 TIP3 4796 TIP3 H2   HT            0.417         1.008       0
   14631 TIP3 4797 TIP3 OH2  OT           -0.834       15.9994       0
   14632 TIP3 4797 TIP3 H1   HT            0.417         1.008       0
   14633 TIP3 4797 TIP3 H2   HT            0.417         1.008       0
   14634 TIP3 4798 TIP3 OH2  OT           -0.834       15.9994       0
   14635 TIP3 4798 TIP3 H1   HT            0.417         1.008       0
   14636 TIP3 4798 TIP3 H2   HT            0.417         1.008       0
   14637 TIP3 4799 TIP3 OH2  OT           -0.834       15.9994       0
   14638 TIP3 4799 TIP3 H1   HT            0.417         1.008       0
   14639 TIP3 4799 TIP3 H2   HT            0.417         1.008       0
   14640 TIP3 4800 TIP3 OH2  OT           -0.834       15.9994       0
   14641 TIP3 4800 TIP3 H1   HT            0.417         1.008       0
   14642 TIP3 4800 TIP3 H2   HT            0.417         1.008       0
   14643 TIP3 4801 TIP3 OH2  OT           -0.834       15.9994       0
   14644 TIP3 4801 TIP3 H1   HT            0.417         1.008       0
   14645 TIP3 4801 TIP3 H2   HT            0.417         1.008       0
   14646 TIP3 4802 TIP3 OH2  OT           -0.834       15.9994       0
   14647 TIP3 4802 TIP3 H1   HT            0.417         1.008       0
   14648 TIP3 4802 TIP3 H2   HT            0.417         1.008       0
   14649 TIP3 4803 TIP3 OH2  OT           -0.834       15.9994       0
   14650 TIP3 4803 TIP3 H1   HT            0.417         1.008       0
   14651 TIP3 4803 TIP3 H2   HT            0.417         1.008       0
   14652 TIP3 4804 TIP3 OH2  OT           -0.834       15.9994       0
   14653 TIP3 4804 TIP3 H1   HT            0.417         1.008       0
   14654 TIP3 4804 TIP3 H2   HT            0.417         1.008       0
   14655 TIP3 4805 TIP3 OH2  OT           -0.834       15.9994       0
   14656 TIP3 4805 TIP3 H1   HT            0.417         1.008       0
   14657 TIP3 4805 TIP3 H2   HT            0.417         1.008       0
   14658 TIP3 4806 TIP3 OH2  OT           -0.834       15.9994       0
   14659 TIP3 4806 TIP3 H1   HT            0.417         1.008       0
   14660 TIP3 4806 TIP3 H2   HT            0.417         1.008       0
   14661 TIP3 4807 TIP3 OH2  OT           -0.834       15.9994       0
   14662 TIP3 4807 TIP3 H1   HT            0.417         1.008       0
   14663 TIP3 4807 TIP3 H2   HT            0.417         1.008       0
   14664 TIP3 4808 TIP3 OH2  OT           -0.834       15.9994       0
   14665 TIP3 4808 TIP3 H1   HT            0.417         1.008       0
   14666 TIP3 4808 TIP3 H2   HT            0.417         1.008       0
   14667 TIP3 4809 TIP3 OH2  OT           -0.834       15.9994       0
   14668 TIP3 4809 TIP3 H1   HT            0.417         1.008       0
   14669 TIP3 4809 TIP3 H2   HT            0.417         1.008       0
   14670 TIP3 4810 TIP3 OH2  OT           -0.834       15.9994       0
   14671 TIP3 4810 TIP3 H1   HT            0.417         1.008       0
   14672 TIP3 4810 TIP3 H2   HT            0.417         1.008       0
   14673 TIP3 4811 TIP3 OH2  OT           -0.834       15.9994       0
   14674 TIP3 4811 TIP3 H1   HT            0.417         1.008       0
   14675 TIP3 4811 TIP3 H2   HT            0.417         1.008       0
   14676 TIP3 4812 TIP3 OH2  OT           -0.834       15.9994       0
   14677 TIP3 4812 TIP3 H1   HT            0.417         1.008       0
   14678 TIP3 4812 TIP3 H2   HT            0.417         1.008       0
   14679 TIP3 4813 TIP3 OH2  OT           -0.834       15.9994       0
   14680 TIP3 4813 TIP3 H1   HT            0.417         1.008       0
   14681 TIP3 4813 TIP3 H2   HT            0.417         1.008       0
   14682 TIP3 4814 TIP3 OH2  OT           -0.834       15.9994       0
   14683 TIP3 4814 TIP3 H1   HT            0.417         1.008       0
   14684 TIP3 4814 TIP3 H2   HT            0.417         1.008       0
   14685 TIP3 4815 TIP3 OH2  OT           -0.834       15.9994       0
   14686 TIP3 4815 TIP3 H1   HT            0.417         1.008       0
   14687 TIP3 4815 TIP3 H2   HT            0.417         1.008       0
   14688 TIP3 4816 TIP3 OH2  OT           -0.834       15.9994       0
   14689 TIP3 4816 TIP3 H1   HT            0.417         1.008       0
   14690 TIP3 4816 TIP3 H2   HT            0.417         1.008       0
   14691 TIP3 4817 TIP3 OH2  OT           -0.834       15.9994       0
   14692 TIP3 4817 TIP3 H1   HT            0.417         1.008       0
   14693 TIP3 4817 TIP3 H2   HT            0.417         1.008       0
   14694 TIP3 4818 TIP3 OH2  OT           -0.834       15.9994       0
   14695 TIP3 4818 TIP3 H1   HT            0.417         1.008       0
   14696 TIP3 4818 TIP3 H2   HT            0.417         1.008       0
   14697 TIP3 4819 TIP3 OH2  OT           -0.834       15.9994       0
   14698 TIP3 4819 TIP3 H1   HT            0.417         1.008       0
   14699 TIP3 4819 TIP3 H2   HT            0.417         1.008       0
   14700 TIP3 4820 TIP3 OH2  OT           -0.834       15.9994       0
   14701 TIP3 4820 TIP3 H1   HT            0.417         1.008       0
   14702 TIP3 4820 TIP3 H2   HT            0.417         1.008       0
   14703 TIP3 4821 TIP3 OH2  OT           -0.834       15.9994       0
   14704 TIP3 4821 TIP3 H1   HT            0.417         1.008       0
   14705 TIP3 4821 TIP3 H2   HT            0.417         1.008       0
   14706 TIP3 4822 TIP3 OH2  OT           -0.834       15.9994       0
   14707 TIP3 4822 TIP3 H1   HT            0.417         1.008       0
   14708 TIP3 4822 TIP3 H2   HT            0.417         1.008       0
   14709 TIP3 4823 TIP3 OH2  OT           -0.834       15.9994       0
   14710 TIP3 4823 TIP3 H1   HT            0.417         1.008       0
   14711 TIP3 4823 TIP3 H2   HT            0.417         1.008       0
   14712 TIP3 4824 TIP3 OH2  OT           -0.834       15.9994       0
   14713 TIP3 4824 TIP3 H1   HT            0.417         1.008       0
   14714 TIP3 4824 TIP3 H2   HT            0.417         1.008       0
   14715 TIP3 4825 TIP3 OH2  OT           -0.834       15.9994       0
   14716 TIP3 4825 TIP3 H1   HT            0.417         1.008       0
   14717 TIP3 4825 TIP3 H2   HT            0.417         1.008       0
   14718 TIP3 4826 TIP3 OH2  OT           -0.834       15.9994       0
   14719 TIP3 4826 TIP3 H1   HT            0.417         1.008       0
   14720 TIP3 4826 TIP3 H2   HT            0.417         1.008       0
   14721 TIP3 4827 TIP3 OH2  OT           -0.834       15.9994       0
   14722 TIP3 4827 TIP3 H1   HT            0.417         1.008       0
   14723 TIP3 4827 TIP3 H2   HT            0.417         1.008       0
   14724 TIP3 4828 TIP3 OH2  OT           -0.834       15.9994       0
   14725 TIP3 4828 TIP3 H1   HT            0.417         1.008       0
   14726 TIP3 4828 TIP3 H2   HT            0.417         1.008       0
   14727 TIP3 4829 TIP3 OH2  OT           -0.834       15.9994       0
   14728 TIP3 4829 TIP3 H1   HT            0.417         1.008       0
   14729 TIP3 4829 TIP3 H2   HT            0.417         1.008       0
   14730 TIP3 4830 TIP3 OH2  OT           -0.834       15.9994       0
   14731 TIP3 4830 TIP3 H1   HT            0.417         1.008       0
   14732 TIP3 4830 TIP3 H2   HT            0.417         1.008       0
   14733 TIP3 4831 TIP3 OH2  OT           -0.834       15.9994       0
   14734 TIP3 4831 TIP3 H1   HT            0.417         1.008       0
   14735 TIP3 4831 TIP3 H2   HT            0.417         1.008       0
   14736 TIP3 4832 TIP3 OH2  OT           -0.834       15.9994       0
   14737 TIP3 4832 TIP3 H1   HT            0.417         1.008       0
   14738 TIP3 4832 TIP3 H2   HT            0.417         1.008       0
   14739 TIP3 4833 TIP3 OH2  OT           -0.834       15.9994       0
   14740 TIP3 4833 TIP3 H1   HT            0.417         1.008       0
   14741 TIP3 4833 TIP3 H2   HT            0.417         1.008       0
   14742 TIP3 4834 TIP3 OH2  OT           -0.834       15.9994       0
   14743 TIP3 4834 TIP3 H1   HT            0.417         1.008       0
   14744 TIP3 4834 TIP3 H2   HT            0.417         1.008       0
   14745 TIP3 4835 TIP3 OH2  OT           -0.834       15.9994       0
   14746 TIP3 4835 TIP3 H1   HT            0.417         1.008       0
   14747 TIP3 4835 TIP3 H2   HT            0.417         1.008       0
   14748 TIP3 4836 TIP3 OH2  OT           -0.834       15.9994       0
   14749 TIP3 4836 TIP3 H1   HT            0.417         1.008       0
   14750 TIP3 4836 TIP3 H2   HT            0.417         1.008       0
   14751 TIP3 4837 TIP3 OH2  OT           -0.834       15.9994       0
   14752 TIP3 4837 TIP3 H1   HT            0.417         1.008       0
   14753 TIP3 4837 TIP3 H2   HT            0.417         1.008       0
   14754 TIP3 4838 TIP3 OH2  OT           -0.834       15.9994       0
   14755 TIP3 4838 TIP3 H1   HT            0.417         1.008       0
   14756 TIP3 4838 TIP3 H2   HT            0.417         1.008       0
   14757 TIP3 4839 TIP3 OH2  OT           -0.834       15.9994       0
   14758 TIP3 4839 TIP3 H1   HT            0.417         1.008       0
   14759 TIP3 4839 TIP3 H2   HT            0.417         1.008       0
   14760 TIP3 4840 TIP3 OH2  OT           -0.834       15.9994       0
   14761 TIP3 4840 TIP3 H1   HT            0.417         1.008       0
   14762 TIP3 4840 TIP3 H2   HT            0.417         1.008       0
   14763 TIP3 4841 TIP3 OH2  OT           -0.834       15.9994       0
   14764 TIP3 4841 TIP3 H1   HT            0.417         1.008       0
   14765 TIP3 4841 TIP3 H2   HT            0.417         1.008       0
   14766 TIP3 4842 TIP3 OH2  OT           -0.834       15.9994       0
   14767 TIP3 4842 TIP3 H1   HT            0.417         1.008       0
   14768 TIP3 4842 TIP3 H2   HT            0.417         1.008       0
   14769 TIP3 4843 TIP3 OH2  OT           -0.834       15.9994       0
   14770 TIP3 4843 TIP3 H1   HT            0.417         1.008       0
   14771 TIP3 4843 TIP3 H2   HT            0.417         1.008       0
   14772 TIP3 4844 TIP3 OH2  OT           -0.834       15.9994       0
   14773 TIP3 4844 TIP3 H1   HT            0.417         1.008       0
   14774 TIP3 4844 TIP3 H2   HT            0.417         1.008       0
   14775 TIP3 4845 TIP3 OH2  OT           -0.834       15.9994       0
   14776 TIP3 4845 TIP3 H1   HT            0.417         1.008       0
   14777 TIP3 4845 TIP3 H2   HT            0.417         1.008       0
   14778 ION  1    POT  POT  POT               1       39.0983       0
   14779 ION  2    POT  POT  POT               1       39.0983       0
   14780 ION  3    POT  POT  POT               1       39.0983       0
   14781 ION  4    POT  POT  POT               1       39.0983       0
   14782 ION  5    POT  POT  POT               1       39.0983       0
   14783 ION  6    POT  POT  POT               1       39.0983       0
   14784 ION  7    POT  POT  POT               1       39.0983       0
   14785 ION  8    POT  POT  POT               1       39.0983       0
   14786 ION  9    POT  POT  POT               1       39.0983       0
   14787 ION  10   POT  POT  POT               1       39.0983       0
   14788 ION  11   POT  POT  POT               1       39.0983       0
   14789 ION  12   POT  POT  POT               1       39.0983       0
   14790 ION  13   POT  POT  POT               1       39.0983       0
   14791 ION  14   POT  POT  POT               1       39.0983       0
   14792 ION  15   POT  POT  POT               1       39.0983       0
   14793 ION  16   POT  POT  POT               1       39.0983       0
   14794 ION  17   POT  POT  POT               1       39.0983       0
   14795 ION  18   POT  POT  POT               1       39.0983       0
   14796 ION  19   POT  POT  POT               1       39.0983       0
   14797 ION  20   POT  POT  POT               1       39.0983       0
   14798 ION  21   CLA  CLA  CLA              -1         35.45       0
   14799 ION  22   CLA  CLA  CLA              -1         35.45       0
   14800 ION  23   CLA  CLA  CLA              -1         35.45       0
   14801 ION  24   CLA  CLA  CLA              -1         35.45       0
   14802 ION  25   CLA  CLA  CLA              -1         35.45       0
   14803 ION  26   CLA  CLA  CLA              -1         35.45       0
   14804 ION  27   CLA  CLA  CLA              -1         35.45       0
   14805 ION  28   CLA  CLA  CLA              -1         35.45       0
   14806 ION  29   CLA  CLA  CLA              -1         35.45       0
   14807 ION  30   CLA  CLA  CLA              -1         35.45       0
   14808 ION  31   CLA  CLA  CLA              -1         35.45       0
   14809 ION  32   CLA  CLA  CLA              -1         35.45       0
   14810 MEMB 1    CHL1 C3   CRL1           0.14        12.011       0
   14811 MEMB 1    CHL1 H3   HGA1           0.09         1.008       0
   14812 MEMB 1    CHL1 O3   OHL           -0.66       15.9994       0
   14813 MEMB 1    CHL1 H3'  HOL            0.43         1.008       0
   14814 MEMB 1    CHL1 C4   CRL2          -0.18        12.011       0
   14815 MEMB 1    CHL1 H4A  HGA2           0.09         1.008       0
   14816 MEMB 1    CHL1 H4B  HGA2           0.09         1.008       0
   14817 MEMB 1    CHL1 C5   CEL1              0        12.011       0
   14818 MEMB 1    CHL1 C6   CEL1          -0.15        12.011       0
   14819 MEMB 1    CHL1 H6   HEL1           0.15         1.008       0
   14820 MEMB 1    CHL1 C7   CRL2          -0.18        12.011       0
   14821 MEMB 1    CHL1 H7A  HGA2           0.09         1.008       0
   14822 MEMB 1    CHL1 H7B  HGA2           0.09         1.008       0
   14823 MEMB 1    CHL1 C8   CRL1          -0.09        12.011       0
   14824 MEMB 1    CHL1 H8   HGA1           0.09         1.008       0
   14825 MEMB 1    CHL1 C14  CRL1          -0.09        12.011       0
   14826 MEMB 1    CHL1 H14  HGA1           0.09         1.008       0
   14827 MEMB 1    CHL1 C15  CRL2          -0.18        12.011       0
   14828 MEMB 1    CHL1 H15A HGA2           0.09         1.008       0
   14829 MEMB 1    CHL1 H15B HGA2           0.09         1.008       0
   14830 MEMB 1    CHL1 C16  CRL2          -0.18        12.011       0
   14831 MEMB 1    CHL1 H16A HGA2           0.09         1.008       0
   14832 MEMB 1    CHL1 H16B HGA2           0.09         1.008       0
   14833 MEMB 1    CHL1 C17  CRL1          -0.09        12.011       0
   14834 MEMB 1    CHL1 H17  HGA1           0.09         1.008       0
   14835 MEMB 1    CHL1 C13  CRL1              0        12.011       0
   14836 MEMB 1    CHL1 C18  CTL3          -0.27        12.011       0
   14837 MEMB 1    CHL1 H18A HAL3           0.09         1.008       0
   14838 MEMB 1    CHL1 H18B HAL3           0.09         1.008       0
   14839 MEMB 1    CHL1 H18C HAL3           0.09         1.008       0
   14840 MEMB 1    CHL1 C12  CRL2          -0.18        12.011       0
   14841 MEMB 1    CHL1 H12A HGA2           0.09         1.008       0
   14842 MEMB 1    CHL1 H12B HGA2           0.09         1.008       0
   14843 MEMB 1    CHL1 C11  CRL2          -0.18        12.011       0
   14844 MEMB 1    CHL1 H11A HGA2           0.09         1.008       0
   14845 MEMB 1    CHL1 H11B HGA2           0.09         1.008       0
   14846 MEMB 1    CHL1 C9   CRL1          -0.09        12.011       0
   14847 MEMB 1    CHL1 H9   HGA1           0.09         1.008       0
   14848 MEMB 1    CHL1 C10  CRL1              0        12.011       0
   14849 MEMB 1    CHL1 C19  CTL3          -0.27        12.011       0
   14850 MEMB 1    CHL1 H19A HAL3           0.09         1.008       0
   14851 MEMB 1    CHL1 H19B HAL3           0.09         1.008       0
   14852 MEMB 1    CHL1 H19C HAL3           0.09         1.008       0
   14853 MEMB 1    CHL1 C1   CRL2          -0.18        12.011       0
   14854 MEMB 1    CHL1 H1A  HGA2           0.09         1.008       0
   14855 MEMB 1    CHL1 H1B  HGA2           0.09         1.008       0
   14856 MEMB 1    CHL1 C2   CRL2          -0.18        12.011       0
   14857 MEMB 1    CHL1 H2A  HGA2           0.09         1.008       0
   14858 MEMB 1    CHL1 H2B  HGA2           0.09         1.008       0
   14859 MEMB 1    CHL1 C20  CTL1          -0.09        12.011       0
   14860 MEMB 1    CHL1 H20  HAL1           0.09         1.008       0
   14861 MEMB 1    CHL1 C21  CTL3          -0.27        12.011       0
   14862 MEMB 1    CHL1 H21A HAL3           0.09         1.008       0
   14863 MEMB 1    CHL1 H21B HAL3           0.09         1.008       0
   14864 MEMB 1    CHL1 H21C HAL3           0.09         1.008       0
   14865 MEMB 1    CHL1 C22  CTL2          -0.18        12.011       0
   14866 MEMB 1    CHL1 H22A HAL2           0.09         1.008       0
   14867 MEMB 1    CHL1 H22B HAL2           0.09         1.008       0
   14868 MEMB 1    CHL1 C23  CTL2          -0.18        12.011       0
   14869 MEMB 1    CHL1 H23A HAL2           0.09         1.008       0
   14870 MEMB 1    CHL1 H23B HAL2           0.09         1.008       0
   14871 MEMB 1    CHL1 C24  CTL2          -0.18        12.011       0
   14872 MEMB 1    CHL1 H24A HAL2           0.09         1.008       0
   14873 MEMB 1    CHL1 H24B HAL2           0.09         1.008       0
   14874 MEMB 1    CHL1 C25  CTL1          -0.09        12.011       0
   14875 MEMB 1    CHL1 H25  HAL1           0.09         1.008       0
   14876 MEMB 1    CHL1 C26  CTL3          -0.27        12.011       0
   14877 MEMB 1    CHL1 H26A HAL3           0.09         1.008       0
   14878 MEMB 1    CHL1 H26B HAL3           0.09         1.008       0
   14879 MEMB 1    CHL1 H26C HAL3           0.09         1.008       0
   14880 MEMB 1    CHL1 C27  CTL3          -0.27        12.011       0
   14881 MEMB 1    CHL1 H27A HAL3           0.09         1.008       0
   14882 MEMB 1    CHL1 H27B HAL3           0.09         1.008       0
   14883 MEMB 1    CHL1 H27C HAL3           0.09         1.008       0
   14884 MEMB 2    CHL1 C3   CRL1           0.14        12.011       0
   14885 MEMB 2    CHL1 H3   HGA1           0.09         1.008       0
   14886 MEMB 2    CHL1 O3   OHL           -0.66       15.9994       0
   14887 MEMB 2    CHL1 H3'  HOL            0.43         1.008       0
   14888 MEMB 2    CHL1 C4   CRL2          -0.18        12.011       0
   14889 MEMB 2    CHL1 H4A  HGA2           0.09         1.008       0
   14890 MEMB 2    CHL1 H4B  HGA2           0.09         1.008       0
   14891 MEMB 2    CHL1 C5   CEL1              0        12.011       0
   14892 MEMB 2    CHL1 C6   CEL1          -0.15        12.011       0
   14893 MEMB 2    CHL1 H6   HEL1           0.15         1.008       0
   14894 MEMB 2    CHL1 C7   CRL2          -0.18        12.011       0
   14895 MEMB 2    CHL1 H7A  HGA2           0.09         1.008       0
   14896 MEMB 2    CHL1 H7B  HGA2           0.09         1.008       0
   14897 MEMB 2    CHL1 C8   CRL1          -0.09        12.011       0
   14898 MEMB 2    CHL1 H8   HGA1           0.09         1.008       0
   14899 MEMB 2    CHL1 C14  CRL1          -0.09        12.011       0
   14900 MEMB 2    CHL1 H14  HGA1           0.09         1.008       0
   14901 MEMB 2    CHL1 C15  CRL2          -0.18        12.011       0
   14902 MEMB 2    CHL1 H15A HGA2           0.09         1.008       0
   14903 MEMB 2    CHL1 H15B HGA2           0.09         1.008       0
   14904 MEMB 2    CHL1 C16  CRL2          -0.18        12.011       0
   14905 MEMB 2    CHL1 H16A HGA2           0.09         1.008       0
   14906 MEMB 2    CHL1 H16B HGA2           0.09         1.008       0
   14907 MEMB 2    CHL1 C17  CRL1          -0.09        12.011       0
   14908 MEMB 2    CHL1 H17  HGA1           0.09         1.008       0
   14909 MEMB 2    CHL1 C13  CRL1              0        12.011       0
   14910 MEMB 2    CHL1 C18  CTL3          -0.27        12.011       0
   14911 MEMB 2    CHL1 H18A HAL3           0.09         1.008       0
   14912 MEMB 2    CHL1 H18B HAL3           0.09         1.008       0
   14913 MEMB 2    CHL1 H18C HAL3           0.09         1.008       0
   14914 MEMB 2    CHL1 C12  CRL2          -0.18        12.011       0
   14915 MEMB 2    CHL1 H12A HGA2           0.09         1.008       0
   14916 MEMB 2    CHL1 H12B HGA2           0.09         1.008       0
   14917 MEMB 2    CHL1 C11  CRL2          -0.18        12.011       0
   14918 MEMB 2    CHL1 H11A HGA2           0.09         1.008       0
   14919 MEMB 2    CHL1 H11B HGA2           0.09         1.008       0
   14920 MEMB 2    CHL1 C9   CRL1          -0.09        12.011       0
   14921 MEMB 2    CHL1 H9   HGA1           0.09         1.008       0
   14922 MEMB 2    CHL1 C10  CRL1              0        12.011       0
   14923 MEMB 2    CHL1 C19  CTL3          -0.27        12.011       0
   14924 MEMB 2    CHL1 H19A HAL3           0.09         1.008       0
   14925 MEMB 2    CHL1 H19B HAL3           0.09         1.008       0
   14926 MEMB 2    CHL1 H19C HAL3           0.09         1.008       0
   14927 MEMB 2    CHL1 C1   CRL2          -0.18        12.011       0
   14928 MEMB 2    CHL1 H1A  HGA2           0.09         1.008       0
   14929 MEMB 2    CHL1 H1B  HGA2           0.09         1.008       0
   14930 MEMB 2    CHL1 C2   CRL2          -0.18        12.011       0
   14931 MEMB 2    CHL1 H2A  HGA2           0.09         1.008       0
   14932 MEMB 2    CHL1 H2B  HGA2           0.09         1.008       0
   14933 MEMB 2    CHL1 C20  CTL1          -0.09        12.011       0
   14934 MEMB 2    CHL1 H20  HAL1           0.09         1.008       0
   14935 MEMB 2    CHL1 C21  CTL3          -0.27        12.011       0
   14936 MEMB 2    CHL1 H21A HAL3           0.09         1.008       0
   14937 MEMB 2    CHL1 H21B HAL3           0.09         1.008       0
   14938 MEMB 2    CHL1 H21C HAL3           0.09         1.008       0
   14939 MEMB 2    CHL1 C22  CTL2          -0.18        12.011       0
   14940 MEMB 2    CHL1 H22A HAL2           0.09         1.008       0
   14941 MEMB 2    CHL1 H22B HAL2           0.09         1.008       0
   14942 MEMB 2    CHL1 C23  CTL2          -0.18        12.011       0
   14943 MEMB 2    CHL1 H23A HAL2           0.09         1.008       0
   14944 MEMB 2    CHL1 H23B HAL2           0.09         1.008       0
   14945 MEMB 2    CHL1 C24  CTL2          -0.18        12.011       0
   14946 MEMB 2    CHL1 H24A HAL2           0.09         1.008       0
   14947 MEMB 2    CHL1 H24B HAL2           0.09         1.008       0
   14948 MEMB 2    CHL1 C25  CTL1          -0.09        12.011       0
   14949 MEMB 2    CHL1 H25  HAL1           0.09         1.008       0
   14950 MEMB 2    CHL1 C26  CTL3          -0.27        12.011       0
   14951 MEMB 2    CHL1 H26A HAL3           0.09         1.008       0
   14952 MEMB 2    CHL1 H26B HAL3           0.09         1.008       0
   14953 MEMB 2    CHL1 H26C HAL3           0.09         1.008       0
   14954 MEMB 2    CHL1 C27  CTL3          -0.27        12.011       0
   14955 MEMB 2    CHL1 H27A HAL3           0.09         1.008       0
   14956 MEMB 2    CHL1 H27B HAL3           0.09         1.008       0
   14957 MEMB 2    CHL1 H27C HAL3           0.09         1.008       0
   14958 MEMB 3    CHL1 C3   CRL1           0.14        12.011       0
   14959 MEMB 3    CHL1 H3   HGA1           0.09         1.008       0
   14960 MEMB 3    CHL1 O3   OHL           -0.66       15.9994       0
   14961 MEMB 3    CHL1 H3'  HOL            0.43         1.008       0
   14962 MEMB 3    CHL1 C4   CRL2          -0.18        12.011       0
   14963 MEMB 3    CHL1 H4A  HGA2           0.09         1.008       0
   14964 MEMB 3    CHL1 H4B  HGA2           0.09         1.008       0
   14965 MEMB 3    CHL1 C5   CEL1              0        12.011       0
   14966 MEMB 3    CHL1 C6   CEL1          -0.15        12.011       0
   14967 MEMB 3    CHL1 H6   HEL1           0.15         1.008       0
   14968 MEMB 3    CHL1 C7   CRL2          -0.18        12.011       0
   14969 MEMB 3    CHL1 H7A  HGA2           0.09         1.008       0
   14970 MEMB 3    CHL1 H7B  HGA2           0.09         1.008       0
   14971 MEMB 3    CHL1 C8   CRL1          -0.09        12.011       0
   14972 MEMB 3    CHL1 H8   HGA1           0.09         1.008       0
   14973 MEMB 3    CHL1 C14  CRL1          -0.09        12.011       0
   14974 MEMB 3    CHL1 H14  HGA1           0.09         1.008       0
   14975 MEMB 3    CHL1 C15  CRL2          -0.18        12.011       0
   14976 MEMB 3    CHL1 H15A HGA2           0.09         1.008       0
   14977 MEMB 3    CHL1 H15B HGA2           0.09         1.008       0
   14978 MEMB 3    CHL1 C16  CRL2          -0.18        12.011       0
   14979 MEMB 3    CHL1 H16A HGA2           0.09         1.008       0
   14980 MEMB 3    CHL1 H16B HGA2           0.09         1.008       0
   14981 MEMB 3    CHL1 C17  CRL1          -0.09        12.011       0
   14982 MEMB 3    CHL1 H17  HGA1           0.09         1.008       0
   14983 MEMB 3    CHL1 C13  CRL1              0        12.011       0
   14984 MEMB 3    CHL1 C18  CTL3          -0.27        12.011       0
   14985 MEMB 3    CHL1 H18A HAL3           0.09         1.008       0
   14986 MEMB 3    CHL1 H18B HAL3           0.09         1.008       0
   14987 MEMB 3    CHL1 H18C HAL3           0.09         1.008       0
   14988 MEMB 3    CHL1 C12  CRL2          -0.18        12.011       0
   14989 MEMB 3    CHL1 H12A HGA2           0.09         1.008       0
   14990 MEMB 3    CHL1 H12B HGA2           0.09         1.008       0
   14991 MEMB 3    CHL1 C11  CRL2          -0.18        12.011       0
   14992 MEMB 3    CHL1 H11A HGA2           0.09         1.008       0
   14993 MEMB 3    CHL1 H11B HGA2           0.09         1.008       0
   14994 MEMB 3    CHL1 C9   CRL1          -0.09        12.011       0
   14995 MEMB 3    CHL1 H9   HGA1           0.09         1.008       0
   14996 MEMB 3    CHL1 C10  CRL1              0        12.011       0
   14997 MEMB 3    CHL1 C19  CTL3          -0.27        12.011       0
   14998 MEMB 3    CHL1 H19A HAL3           0.09         1.008       0
   14999 MEMB 3    CHL1 H19B HAL3           0.09         1.008       0
   15000 MEMB 3    CHL1 H19C HAL3           0.09         1.008       0
   15001 MEMB 3    CHL1 C1   CRL2          -0.18        12.011       0
   15002 MEMB 3    CHL1 H1A  HGA2           0.09         1.008       0
   15003 MEMB 3    CHL1 H1B  HGA2           0.09         1.008       0
   15004 MEMB 3    CHL1 C2   CRL2          -0.18        12.011       0
   15005 MEMB 3    CHL1 H2A  HGA2           0.09         1.008       0
   15006 MEMB 3    CHL1 H2B  HGA2           0.09         1.008       0
   15007 MEMB 3    CHL1 C20  CTL1          -0.09        12.011       0
   15008 MEMB 3    CHL1 H20  HAL1           0.09         1.008       0
   15009 MEMB 3    CHL1 C21  CTL3          -0.27        12.011       0
   15010 MEMB 3    CHL1 H21A HAL3           0.09         1.008       0
   15011 MEMB 3    CHL1 H21B HAL3           0.09         1.008       0
   15012 MEMB 3    CHL1 H21C HAL3           0.09         1.008       0
   15013 MEMB 3    CHL1 C22  CTL2          -0.18        12.011       0
   15014 MEMB 3    CHL1 H22A HAL2           0.09         1.008       0
   15015 MEMB 3    CHL1 H22B HAL2           0.09         1.008       0
   15016 MEMB 3    CHL1 C23  CTL2          -0.18        12.011       0
   15017 MEMB 3    CHL1 H23A HAL2           0.09         1.008       0
   15018 MEMB 3    CHL1 H23B HAL2           0.09         1.008       0
   15019 MEMB 3    CHL1 C24  CTL2          -0.18        12.011       0
   15020 MEMB 3    CHL1 H24A HAL2           0.09         1.008       0
   15021 MEMB 3    CHL1 H24B HAL2           0.09         1.008       0
   15022 MEMB 3    CHL1 C25  CTL1          -0.09        12.011       0
   15023 MEMB 3    CHL1 H25  HAL1           0.09         1.008       0
   15024 MEMB 3    CHL1 C26  CTL3          -0.27        12.011       0
   15025 MEMB 3    CHL1 H26A HAL3           0.09         1.008       0
   15026 MEMB 3    CHL1 H26B HAL3           0.09         1.008       0
   15027 MEMB 3    CHL1 H26C HAL3           0.09         1.008       0
   15028 MEMB 3    CHL1 C27  CTL3          -0.27        12.011       0
   15029 MEMB 3    CHL1 H27A HAL3           0.09         1.008       0
   15030 MEMB 3    CHL1 H27B HAL3           0.09         1.008       0
   15031 MEMB 3    CHL1 H27C HAL3           0.09         1.008       0
   15032 MEMB 4    CHL1 C3   CRL1           0.14        12.011       0
   15033 MEMB 4    CHL1 H3   HGA1           0.09         1.008       0
   15034 MEMB 4    CHL1 O3   OHL           -0.66       15.9994       0
   15035 MEMB 4    CHL1 H3'  HOL            0.43         1.008       0
   15036 MEMB 4    CHL1 C4   CRL2          -0.18        12.011       0
   15037 MEMB 4    CHL1 H4A  HGA2           0.09         1.008       0
   15038 MEMB 4    CHL1 H4B  HGA2           0.09         1.008       0
   15039 MEMB 4    CHL1 C5   CEL1              0        12.011       0
   15040 MEMB 4    CHL1 C6   CEL1          -0.15        12.011       0
   15041 MEMB 4    CHL1 H6   HEL1           0.15         1.008       0
   15042 MEMB 4    CHL1 C7   CRL2          -0.18        12.011       0
   15043 MEMB 4    CHL1 H7A  HGA2           0.09         1.008       0
   15044 MEMB 4    CHL1 H7B  HGA2           0.09         1.008       0
   15045 MEMB 4    CHL1 C8   CRL1          -0.09        12.011       0
   15046 MEMB 4    CHL1 H8   HGA1           0.09         1.008       0
   15047 MEMB 4    CHL1 C14  CRL1          -0.09        12.011       0
   15048 MEMB 4    CHL1 H14  HGA1           0.09         1.008       0
   15049 MEMB 4    CHL1 C15  CRL2          -0.18        12.011       0
   15050 MEMB 4    CHL1 H15A HGA2           0.09         1.008       0
   15051 MEMB 4    CHL1 H15B HGA2           0.09         1.008       0
   15052 MEMB 4    CHL1 C16  CRL2          -0.18        12.011       0
   15053 MEMB 4    CHL1 H16A HGA2           0.09         1.008       0
   15054 MEMB 4    CHL1 H16B HGA2           0.09         1.008       0
   15055 MEMB 4    CHL1 C17  CRL1          -0.09        12.011       0
   15056 MEMB 4    CHL1 H17  HGA1           0.09         1.008       0
   15057 MEMB 4    CHL1 C13  CRL1              0        12.011       0
   15058 MEMB 4    CHL1 C18  CTL3          -0.27        12.011       0
   15059 MEMB 4    CHL1 H18A HAL3           0.09         1.008       0
   15060 MEMB 4    CHL1 H18B HAL3           0.09         1.008       0
   15061 MEMB 4    CHL1 H18C HAL3           0.09         1.008       0
   15062 MEMB 4    CHL1 C12  CRL2          -0.18        12.011       0
   15063 MEMB 4    CHL1 H12A HGA2           0.09         1.008       0
   15064 MEMB 4    CHL1 H12B HGA2           0.09         1.008       0
   15065 MEMB 4    CHL1 C11  CRL2          -0.18        12.011       0
   15066 MEMB 4    CHL1 H11A HGA2           0.09         1.008       0
   15067 MEMB 4    CHL1 H11B HGA2           0.09         1.008       0
   15068 MEMB 4    CHL1 C9   CRL1          -0.09        12.011       0
   15069 MEMB 4    CHL1 H9   HGA1           0.09         1.008       0
   15070 MEMB 4    CHL1 C10  CRL1              0        12.011       0
   15071 MEMB 4    CHL1 C19  CTL3          -0.27        12.011       0
   15072 MEMB 4    CHL1 H19A HAL3           0.09         1.008       0
   15073 MEMB 4    CHL1 H19B HAL3           0.09         1.008       0
   15074 MEMB 4    CHL1 H19C HAL3           0.09         1.008       0
   15075 MEMB 4    CHL1 C1   CRL2          -0.18        12.011       0
   15076 MEMB 4    CHL1 H1A  HGA2           0.09         1.008       0
   15077 MEMB 4    CHL1 H1B  HGA2           0.09         1.008       0
   15078 MEMB 4    CHL1 C2   CRL2          -0.18        12.011       0
   15079 MEMB 4    CHL1 H2A  HGA2           0.09         1.008       0
   15080 MEMB 4    CHL1 H2B  HGA2           0.09         1.008       0
   15081 MEMB 4    CHL1 C20  CTL1          -0.09        12.011       0
   15082 MEMB 4    CHL1 H20  HAL1           0.09         1.008       0
   15083 MEMB 4    CHL1 C21  CTL3          -0.27        12.011       0
   15084 MEMB 4    CHL1 H21A HAL3           0.09         1.008       0
   15085 MEMB 4    CHL1 H21B HAL3           0.09         1.008       0
   15086 MEMB 4    CHL1 H21C HAL3           0.09         1.008       0
   15087 MEMB 4    CHL1 C22  CTL2          -0.18        12.011       0
   15088 MEMB 4    CHL1 H22A HAL2           0.09         1.008       0
   15089 MEMB 4    CHL1 H22B HAL2           0.09         1.008       0
   15090 MEMB 4    CHL1 C23  CTL2          -0.18        12.011       0
   15091 MEMB 4    CHL1 H23A HAL2           0.09         1.008       0
   15092 MEMB 4    CHL1 H23B HAL2           0.09         1.008       0
   15093 MEMB 4    CHL1 C24  CTL2          -0.18        12.011       0
   15094 MEMB 4    CHL1 H24A HAL2           0.09         1.008       0
   15095 MEMB 4    CHL1 H24B HAL2           0.09         1.008       0
   15096 MEMB 4    CHL1 C25  CTL1          -0.09        12.011       0
   15097 MEMB 4    CHL1 H25  HAL1           0.09         1.008       0
   15098 MEMB 4    CHL1 C26  CTL3          -0.27        12.011       0
   15099 MEMB 4    CHL1 H26A HAL3           0.09         1.008       0
   15100 MEMB 4    CHL1 H26B HAL3           0.09         1.008       0
   15101 MEMB 4    CHL1 H26C HAL3           0.09         1.008       0
   15102 MEMB 4    CHL1 C27  CTL3          -0.27        12.011       0
   15103 MEMB 4    CHL1 H27A HAL3           0.09         1.008       0
   15104 MEMB 4    CHL1 H27B HAL3           0.09         1.008       0
   15105 MEMB 4    CHL1 H27C HAL3           0.09         1.008       0
   15106 MEMB 5    CHL1 C3   CRL1           0.14        12.011       0
   15107 MEMB 5    CHL1 H3   HGA1           0.09         1.008       0
   15108 MEMB 5    CHL1 O3   OHL           -0.66       15.9994       0
   15109 MEMB 5    CHL1 H3'  HOL            0.43         1.008       0
   15110 MEMB 5    CHL1 C4   CRL2          -0.18        12.011       0
   15111 MEMB 5    CHL1 H4A  HGA2           0.09         1.008       0
   15112 MEMB 5    CHL1 H4B  HGA2           0.09         1.008       0
   15113 MEMB 5    CHL1 C5   CEL1              0        12.011       0
   15114 MEMB 5    CHL1 C6   CEL1          -0.15        12.011       0
   15115 MEMB 5    CHL1 H6   HEL1           0.15         1.008       0
   15116 MEMB 5    CHL1 C7   CRL2          -0.18        12.011       0
   15117 MEMB 5    CHL1 H7A  HGA2           0.09         1.008       0
   15118 MEMB 5    CHL1 H7B  HGA2           0.09         1.008       0
   15119 MEMB 5    CHL1 C8   CRL1          -0.09        12.011       0
   15120 MEMB 5    CHL1 H8   HGA1           0.09         1.008       0
   15121 MEMB 5    CHL1 C14  CRL1          -0.09        12.011       0
   15122 MEMB 5    CHL1 H14  HGA1           0.09         1.008       0
   15123 MEMB 5    CHL1 C15  CRL2          -0.18        12.011       0
   15124 MEMB 5    CHL1 H15A HGA2           0.09         1.008       0
   15125 MEMB 5    CHL1 H15B HGA2           0.09         1.008       0
   15126 MEMB 5    CHL1 C16  CRL2          -0.18        12.011       0
   15127 MEMB 5    CHL1 H16A HGA2           0.09         1.008       0
   15128 MEMB 5    CHL1 H16B HGA2           0.09         1.008       0
   15129 MEMB 5    CHL1 C17  CRL1          -0.09        12.011       0
   15130 MEMB 5    CHL1 H17  HGA1           0.09         1.008       0
   15131 MEMB 5    CHL1 C13  CRL1              0        12.011       0
   15132 MEMB 5    CHL1 C18  CTL3          -0.27        12.011       0
   15133 MEMB 5    CHL1 H18A HAL3           0.09         1.008       0
   15134 MEMB 5    CHL1 H18B HAL3           0.09         1.008       0
   15135 MEMB 5    CHL1 H18C HAL3           0.09         1.008       0
   15136 MEMB 5    CHL1 C12  CRL2          -0.18        12.011       0
   15137 MEMB 5    CHL1 H12A HGA2           0.09         1.008       0
   15138 MEMB 5    CHL1 H12B HGA2           0.09         1.008       0
   15139 MEMB 5    CHL1 C11  CRL2          -0.18        12.011       0
   15140 MEMB 5    CHL1 H11A HGA2           0.09         1.008       0
   15141 MEMB 5    CHL1 H11B HGA2           0.09         1.008       0
   15142 MEMB 5    CHL1 C9   CRL1          -0.09        12.011       0
   15143 MEMB 5    CHL1 H9   HGA1           0.09         1.008       0
   15144 MEMB 5    CHL1 C10  CRL1              0        12.011       0
   15145 MEMB 5    CHL1 C19  CTL3          -0.27        12.011       0
   15146 MEMB 5    CHL1 H19A HAL3           0.09         1.008       0
   15147 MEMB 5    CHL1 H19B HAL3           0.09         1.008       0
   15148 MEMB 5    CHL1 H19C HAL3           0.09         1.008       0
   15149 MEMB 5    CHL1 C1   CRL2          -0.18        12.011       0
   15150 MEMB 5    CHL1 H1A  HGA2           0.09         1.008       0
   15151 MEMB 5    CHL1 H1B  HGA2           0.09         1.008       0
   15152 MEMB 5    CHL1 C2   CRL2          -0.18        12.011       0
   15153 MEMB 5    CHL1 H2A  HGA2           0.09         1.008       0
   15154 MEMB 5    CHL1 H2B  HGA2           0.09         1.008       0
   15155 MEMB 5    CHL1 C20  CTL1          -0.09        12.011       0
   15156 MEMB 5    CHL1 H20  HAL1           0.09         1.008       0
   15157 MEMB 5    CHL1 C21  CTL3          -0.27        12.011       0
   15158 MEMB 5    CHL1 H21A HAL3           0.09         1.008       0
   15159 MEMB 5    CHL1 H21B HAL3           0.09         1.008       0
   15160 MEMB 5    CHL1 H21C HAL3           0.09         1.008       0
   15161 MEMB 5    CHL1 C22  CTL2          -0.18        12.011       0
   15162 MEMB 5    CHL1 H22A HAL2           0.09         1.008       0
   15163 MEMB 5    CHL1 H22B HAL2           0.09         1.008       0
   15164 MEMB 5    CHL1 C23  CTL2          -0.18        12.011       0
   15165 MEMB 5    CHL1 H23A HAL2           0.09         1.008       0
   15166 MEMB 5    CHL1 H23B HAL2           0.09         1.008       0
   15167 MEMB 5    CHL1 C24  CTL2          -0.18        12.011       0
   15168 MEMB 5    CHL1 H24A HAL2           0.09         1.008       0
   15169 MEMB 5    CHL1 H24B HAL2           0.09         1.008       0
   15170 MEMB 5    CHL1 C25  CTL1          -0.09        12.011       0
   15171 MEMB 5    CHL1 H25  HAL1           0.09         1.008       0
   15172 MEMB 5    CHL1 C26  CTL3          -0.27        12.011       0
   15173 MEMB 5    CHL1 H26A HAL3           0.09         1.008       0
   15174 MEMB 5    CHL1 H26B HAL3           0.09         1.008       0
   15175 MEMB 5    CHL1 H26C HAL3           0.09         1.008       0
   15176 MEMB 5    CHL1 C27  CTL3          -0.27        12.011       0
   15177 MEMB 5    CHL1 H27A HAL3           0.09         1.008       0
   15178 MEMB 5    CHL1 H27B HAL3           0.09         1.008       0
   15179 MEMB 5    CHL1 H27C HAL3           0.09         1.008       0
   15180 MEMB 6    CHL1 C3   CRL1           0.14        12.011       0
   15181 MEMB 6    CHL1 H3   HGA1           0.09         1.008       0
   15182 MEMB 6    CHL1 O3   OHL           -0.66       15.9994       0
   15183 MEMB 6    CHL1 H3'  HOL            0.43         1.008       0
   15184 MEMB 6    CHL1 C4   CRL2          -0.18        12.011       0
   15185 MEMB 6    CHL1 H4A  HGA2           0.09         1.008       0
   15186 MEMB 6    CHL1 H4B  HGA2           0.09         1.008       0
   15187 MEMB 6    CHL1 C5   CEL1              0        12.011       0
   15188 MEMB 6    CHL1 C6   CEL1          -0.15        12.011       0
   15189 MEMB 6    CHL1 H6   HEL1           0.15         1.008       0
   15190 MEMB 6    CHL1 C7   CRL2          -0.18        12.011       0
   15191 MEMB 6    CHL1 H7A  HGA2           0.09         1.008       0
   15192 MEMB 6    CHL1 H7B  HGA2           0.09         1.008       0
   15193 MEMB 6    CHL1 C8   CRL1          -0.09        12.011       0
   15194 MEMB 6    CHL1 H8   HGA1           0.09         1.008       0
   15195 MEMB 6    CHL1 C14  CRL1          -0.09        12.011       0
   15196 MEMB 6    CHL1 H14  HGA1           0.09         1.008       0
   15197 MEMB 6    CHL1 C15  CRL2          -0.18        12.011       0
   15198 MEMB 6    CHL1 H15A HGA2           0.09         1.008       0
   15199 MEMB 6    CHL1 H15B HGA2           0.09         1.008       0
   15200 MEMB 6    CHL1 C16  CRL2          -0.18        12.011       0
   15201 MEMB 6    CHL1 H16A HGA2           0.09         1.008       0
   15202 MEMB 6    CHL1 H16B HGA2           0.09         1.008       0
   15203 MEMB 6    CHL1 C17  CRL1          -0.09        12.011       0
   15204 MEMB 6    CHL1 H17  HGA1           0.09         1.008       0
   15205 MEMB 6    CHL1 C13  CRL1              0        12.011       0
   15206 MEMB 6    CHL1 C18  CTL3          -0.27        12.011       0
   15207 MEMB 6    CHL1 H18A HAL3           0.09         1.008       0
   15208 MEMB 6    CHL1 H18B HAL3           0.09         1.008       0
   15209 MEMB 6    CHL1 H18C HAL3           0.09         1.008       0
   15210 MEMB 6    CHL1 C12  CRL2          -0.18        12.011       0
   15211 MEMB 6    CHL1 H12A HGA2           0.09         1.008       0
   15212 MEMB 6    CHL1 H12B HGA2           0.09         1.008       0
   15213 MEMB 6    CHL1 C11  CRL2          -0.18        12.011       0
   15214 MEMB 6    CHL1 H11A HGA2           0.09         1.008       0
   15215 MEMB 6    CHL1 H11B HGA2           0.09         1.008       0
   15216 MEMB 6    CHL1 C9   CRL1          -0.09        12.011       0
   15217 MEMB 6    CHL1 H9   HGA1           0.09         1.008       0
   15218 MEMB 6    CHL1 C10  CRL1              0        12.011       0
   15219 MEMB 6    CHL1 C19  CTL3          -0.27        12.011       0
   15220 MEMB 6    CHL1 H19A HAL3           0.09         1.008       0
   15221 MEMB 6    CHL1 H19B HAL3           0.09         1.008       0
   15222 MEMB 6    CHL1 H19C HAL3           0.09         1.008       0
   15223 MEMB 6    CHL1 C1   CRL2          -0.18        12.011       0
   15224 MEMB 6    CHL1 H1A  HGA2           0.09         1.008       0
   15225 MEMB 6    CHL1 H1B  HGA2           0.09         1.008       0
   15226 MEMB 6    CHL1 C2   CRL2          -0.18        12.011       0
   15227 MEMB 6    CHL1 H2A  HGA2           0.09         1.008       0
   15228 MEMB 6    CHL1 H2B  HGA2           0.09         1.008       0
   15229 MEMB 6    CHL1 C20  CTL1          -0.09        12.011       0
   15230 MEMB 6    CHL1 H20  HAL1           0.09         1.008       0
   15231 MEMB 6    CHL1 C21  CTL3          -0.27        12.011       0
   15232 MEMB 6    CHL1 H21A HAL3           0.09         1.008       0
   15233 MEMB 6    CHL1 H21B HAL3           0.09         1.008       0
   15234 MEMB 6    CHL1 H21C HAL3           0.09         1.008       0
   15235 MEMB 6    CHL1 C22  CTL2          -0.18        12.011       0
   15236 MEMB 6    CHL1 H22A HAL2           0.09         1.008       0
   15237 MEMB 6    CHL1 H22B HAL2           0.09         1.008       0
   15238 MEMB 6    CHL1 C23  CTL2          -0.18        12.011       0
   15239 MEMB 6    CHL1 H23A HAL2           0.09         1.008       0
   15240 MEMB 6    CHL1 H23B HAL2           0.09         1.008       0
   15241 MEMB 6    CHL1 C24  CTL2          -0.18        12.011       0
   15242 MEMB 6    CHL1 H24A HAL2           0.09         1.008       0
   15243 MEMB 6    CHL1 H24B HAL2           0.09         1.008       0
   15244 MEMB 6    CHL1 C25  CTL1          -0.09        12.011       0
   15245 MEMB 6    CHL1 H25  HAL1           0.09         1.008       0
   15246 MEMB 6    CHL1 C26  CTL3          -0.27        12.011       0
   15247 MEMB 6    CHL1 H26A HAL3           0.09         1.008       0
   15248 MEMB 6    CHL1 H26B HAL3           0.09         1.008       0
   15249 MEMB 6    CHL1 H26C HAL3           0.09         1.008       0
   15250 MEMB 6    CHL1 C27  CTL3          -0.27        12.011       0
   15251 MEMB 6    CHL1 H27A HAL3           0.09         1.008       0
   15252 MEMB 6    CHL1 H27B HAL3           0.09         1.008       0
   15253 MEMB 6    CHL1 H27C HAL3           0.09         1.008       0
   15254 MEMB 7    CHL1 C3   CRL1           0.14        12.011       0
   15255 MEMB 7    CHL1 H3   HGA1           0.09         1.008       0
   15256 MEMB 7    CHL1 O3   OHL           -0.66       15.9994       0
   15257 MEMB 7    CHL1 H3'  HOL            0.43         1.008       0
   15258 MEMB 7    CHL1 C4   CRL2          -0.18        12.011       0
   15259 MEMB 7    CHL1 H4A  HGA2           0.09         1.008       0
   15260 MEMB 7    CHL1 H4B  HGA2           0.09         1.008       0
   15261 MEMB 7    CHL1 C5   CEL1              0        12.011       0
   15262 MEMB 7    CHL1 C6   CEL1          -0.15        12.011       0
   15263 MEMB 7    CHL1 H6   HEL1           0.15         1.008       0
   15264 MEMB 7    CHL1 C7   CRL2          -0.18        12.011       0
   15265 MEMB 7    CHL1 H7A  HGA2           0.09         1.008       0
   15266 MEMB 7    CHL1 H7B  HGA2           0.09         1.008       0
   15267 MEMB 7    CHL1 C8   CRL1          -0.09        12.011       0
   15268 MEMB 7    CHL1 H8   HGA1           0.09         1.008       0
   15269 MEMB 7    CHL1 C14  CRL1          -0.09        12.011       0
   15270 MEMB 7    CHL1 H14  HGA1           0.09         1.008       0
   15271 MEMB 7    CHL1 C15  CRL2          -0.18        12.011       0
   15272 MEMB 7    CHL1 H15A HGA2           0.09         1.008       0
   15273 MEMB 7    CHL1 H15B HGA2           0.09         1.008       0
   15274 MEMB 7    CHL1 C16  CRL2          -0.18        12.011       0
   15275 MEMB 7    CHL1 H16A HGA2           0.09         1.008       0
   15276 MEMB 7    CHL1 H16B HGA2           0.09         1.008       0
   15277 MEMB 7    CHL1 C17  CRL1          -0.09        12.011       0
   15278 MEMB 7    CHL1 H17  HGA1           0.09         1.008       0
   15279 MEMB 7    CHL1 C13  CRL1              0        12.011       0
   15280 MEMB 7    CHL1 C18  CTL3          -0.27        12.011       0
   15281 MEMB 7    CHL1 H18A HAL3           0.09         1.008       0
   15282 MEMB 7    CHL1 H18B HAL3           0.09         1.008       0
   15283 MEMB 7    CHL1 H18C HAL3           0.09         1.008       0
   15284 MEMB 7    CHL1 C12  CRL2          -0.18        12.011       0
   15285 MEMB 7    CHL1 H12A HGA2           0.09         1.008       0
   15286 MEMB 7    CHL1 H12B HGA2           0.09         1.008       0
   15287 MEMB 7    CHL1 C11  CRL2          -0.18        12.011       0
   15288 MEMB 7    CHL1 H11A HGA2           0.09         1.008       0
   15289 MEMB 7    CHL1 H11B HGA2           0.09         1.008       0
   15290 MEMB 7    CHL1 C9   CRL1          -0.09        12.011       0
   15291 MEMB 7    CHL1 H9   HGA1           0.09         1.008       0
   15292 MEMB 7    CHL1 C10  CRL1              0        12.011       0
   15293 MEMB 7    CHL1 C19  CTL3          -0.27        12.011       0
   15294 MEMB 7    CHL1 H19A HAL3           0.09         1.008       0
   15295 MEMB 7    CHL1 H19B HAL3           0.09         1.008       0
   15296 MEMB 7    CHL1 H19C HAL3           0.09         1.008       0
   15297 MEMB 7    CHL1 C1   CRL2          -0.18        12.011       0
   15298 MEMB 7    CHL1 H1A  HGA2           0.09         1.008       0
   15299 MEMB 7    CHL1 H1B  HGA2           0.09         1.008       0
   15300 MEMB 7    CHL1 C2   CRL2          -0.18        12.011       0
   15301 MEMB 7    CHL1 H2A  HGA2           0.09         1.008       0
   15302 MEMB 7    CHL1 H2B  HGA2           0.09         1.008       0
   15303 MEMB 7    CHL1 C20  CTL1          -0.09        12.011       0
   15304 MEMB 7    CHL1 H20  HAL1           0.09         1.008       0
   15305 MEMB 7    CHL1 C21  CTL3          -0.27        12.011       0
   15306 MEMB 7    CHL1 H21A HAL3           0.09         1.008       0
   15307 MEMB 7    CHL1 H21B HAL3           0.09         1.008       0
   15308 MEMB 7    CHL1 H21C HAL3           0.09         1.008       0
   15309 MEMB 7    CHL1 C22  CTL2          -0.18        12.011       0
   15310 MEMB 7    CHL1 H22A HAL2           0.09         1.008       0
   15311 MEMB 7    CHL1 H22B HAL2           0.09         1.008       0
   15312 MEMB 7    CHL1 C23  CTL2          -0.18        12.011       0
   15313 MEMB 7    CHL1 H23A HAL2           0.09         1.008       0
   15314 MEMB 7    CHL1 H23B HAL2           0.09         1.008       0
   15315 MEMB 7    CHL1 C24  CTL2          -0.18        12.011       0
   15316 MEMB 7    CHL1 H24A HAL2           0.09         1.008       0
   15317 MEMB 7    CHL1 H24B HAL2           0.09         1.008       0
   15318 MEMB 7    CHL1 C25  CTL1          -0.09        12.011       0
   15319 MEMB 7    CHL1 H25  HAL1           0.09         1.008       0
   15320 MEMB 7    CHL1 C26  CTL3          -0.27        12.011       0
   15321 MEMB 7    CHL1 H26A HAL3           0.09         1.008       0
   15322 MEMB 7    CHL1 H26B HAL3           0.09         1.008       0
   15323 MEMB 7    CHL1 H26C HAL3           0.09         1.008       0
   15324 MEMB 7    CHL1 C27  CTL3          -0.27        12.011       0
   15325 MEMB 7    CHL1 H27A HAL3           0.09         1.008       0
   15326 MEMB 7    CHL1 H27B HAL3           0.09         1.008       0
   15327 MEMB 7    CHL1 H27C HAL3           0.09         1.008       0
   15328 MEMB 8    CHL1 C3   CRL1           0.14        12.011       0
   15329 MEMB 8    CHL1 H3   HGA1           0.09         1.008       0
   15330 MEMB 8    CHL1 O3   OHL           -0.66       15.9994       0
   15331 MEMB 8    CHL1 H3'  HOL            0.43         1.008       0
   15332 MEMB 8    CHL1 C4   CRL2          -0.18        12.011       0
   15333 MEMB 8    CHL1 H4A  HGA2           0.09         1.008       0
   15334 MEMB 8    CHL1 H4B  HGA2           0.09         1.008       0
   15335 MEMB 8    CHL1 C5   CEL1              0        12.011       0
   15336 MEMB 8    CHL1 C6   CEL1          -0.15        12.011       0
   15337 MEMB 8    CHL1 H6   HEL1           0.15         1.008       0
   15338 MEMB 8    CHL1 C7   CRL2          -0.18        12.011       0
   15339 MEMB 8    CHL1 H7A  HGA2           0.09         1.008       0
   15340 MEMB 8    CHL1 H7B  HGA2           0.09         1.008       0
   15341 MEMB 8    CHL1 C8   CRL1          -0.09        12.011       0
   15342 MEMB 8    CHL1 H8   HGA1           0.09         1.008       0
   15343 MEMB 8    CHL1 C14  CRL1          -0.09        12.011       0
   15344 MEMB 8    CHL1 H14  HGA1           0.09         1.008       0
   15345 MEMB 8    CHL1 C15  CRL2          -0.18        12.011       0
   15346 MEMB 8    CHL1 H15A HGA2           0.09         1.008       0
   15347 MEMB 8    CHL1 H15B HGA2           0.09         1.008       0
   15348 MEMB 8    CHL1 C16  CRL2          -0.18        12.011       0
   15349 MEMB 8    CHL1 H16A HGA2           0.09         1.008       0
   15350 MEMB 8    CHL1 H16B HGA2           0.09         1.008       0
   15351 MEMB 8    CHL1 C17  CRL1          -0.09        12.011       0
   15352 MEMB 8    CHL1 H17  HGA1           0.09         1.008       0
   15353 MEMB 8    CHL1 C13  CRL1              0        12.011       0
   15354 MEMB 8    CHL1 C18  CTL3          -0.27        12.011       0
   15355 MEMB 8    CHL1 H18A HAL3           0.09         1.008       0
   15356 MEMB 8    CHL1 H18B HAL3           0.09         1.008       0
   15357 MEMB 8    CHL1 H18C HAL3           0.09         1.008       0
   15358 MEMB 8    CHL1 C12  CRL2          -0.18        12.011       0
   15359 MEMB 8    CHL1 H12A HGA2           0.09         1.008       0
   15360 MEMB 8    CHL1 H12B HGA2           0.09         1.008       0
   15361 MEMB 8    CHL1 C11  CRL2          -0.18        12.011       0
   15362 MEMB 8    CHL1 H11A HGA2           0.09         1.008       0
   15363 MEMB 8    CHL1 H11B HGA2           0.09         1.008       0
   15364 MEMB 8    CHL1 C9   CRL1          -0.09        12.011       0
   15365 MEMB 8    CHL1 H9   HGA1           0.09         1.008       0
   15366 MEMB 8    CHL1 C10  CRL1              0        12.011       0
   15367 MEMB 8    CHL1 C19  CTL3          -0.27        12.011       0
   15368 MEMB 8    CHL1 H19A HAL3           0.09         1.008       0
   15369 MEMB 8    CHL1 H19B HAL3           0.09         1.008       0
   15370 MEMB 8    CHL1 H19C HAL3           0.09         1.008       0
   15371 MEMB 8    CHL1 C1   CRL2          -0.18        12.011       0
   15372 MEMB 8    CHL1 H1A  HGA2           0.09         1.008       0
   15373 MEMB 8    CHL1 H1B  HGA2           0.09         1.008       0
   15374 MEMB 8    CHL1 C2   CRL2          -0.18        12.011       0
   15375 MEMB 8    CHL1 H2A  HGA2           0.09         1.008       0
   15376 MEMB 8    CHL1 H2B  HGA2           0.09         1.008       0
   15377 MEMB 8    CHL1 C20  CTL1          -0.09        12.011       0
   15378 MEMB 8    CHL1 H20  HAL1           0.09         1.008       0
   15379 MEMB 8    CHL1 C21  CTL3          -0.27        12.011       0
   15380 MEMB 8    CHL1 H21A HAL3           0.09         1.008       0
   15381 MEMB 8    CHL1 H21B HAL3           0.09         1.008       0
   15382 MEMB 8    CHL1 H21C HAL3           0.09         1.008       0
   15383 MEMB 8    CHL1 C22  CTL2          -0.18        12.011       0
   15384 MEMB 8    CHL1 H22A HAL2           0.09         1.008       0
   15385 MEMB 8    CHL1 H22B HAL2           0.09         1.008       0
   15386 MEMB 8    CHL1 C23  CTL2          -0.18        12.011       0
   15387 MEMB 8    CHL1 H23A HAL2           0.09         1.008       0
   15388 MEMB 8    CHL1 H23B HAL2           0.09         1.008       0
   15389 MEMB 8    CHL1 C24  CTL2          -0.18        12.011       0
   15390 MEMB 8    CHL1 H24A HAL2           0.09         1.008       0
   15391 MEMB 8    CHL1 H24B HAL2           0.09         1.008       0
   15392 MEMB 8    CHL1 C25  CTL1          -0.09        12.011       0
   15393 MEMB 8    CHL1 H25  HAL1           0.09         1.008       0
   15394 MEMB 8    CHL1 C26  CTL3          -0.27        12.011       0
   15395 MEMB 8    CHL1 H26A HAL3           0.09         1.008       0
   15396 MEMB 8    CHL1 H26B HAL3           0.09         1.008       0
   15397 MEMB 8    CHL1 H26C HAL3           0.09         1.008       0
   15398 MEMB 8    CHL1 C27  CTL3          -0.27        12.011       0
   15399 MEMB 8    CHL1 H27A HAL3           0.09         1.008       0
   15400 MEMB 8    CHL1 H27B HAL3           0.09         1.008       0
   15401 MEMB 8    CHL1 H27C HAL3           0.09         1.008       0
   15402 MEMB 9    CHL1 C3   CRL1           0.14        12.011       0
   15403 MEMB 9    CHL1 H3   HGA1           0.09         1.008       0
   15404 MEMB 9    CHL1 O3   OHL           -0.66       15.9994       0
   15405 MEMB 9    CHL1 H3'  HOL            0.43         1.008       0
   15406 MEMB 9    CHL1 C4   CRL2          -0.18        12.011       0
   15407 MEMB 9    CHL1 H4A  HGA2           0.09         1.008       0
   15408 MEMB 9    CHL1 H4B  HGA2           0.09         1.008       0
   15409 MEMB 9    CHL1 C5   CEL1              0        12.011       0
   15410 MEMB 9    CHL1 C6   CEL1          -0.15        12.011       0
   15411 MEMB 9    CHL1 H6   HEL1           0.15         1.008       0
   15412 MEMB 9    CHL1 C7   CRL2          -0.18        12.011       0
   15413 MEMB 9    CHL1 H7A  HGA2           0.09         1.008       0
   15414 MEMB 9    CHL1 H7B  HGA2           0.09         1.008       0
   15415 MEMB 9    CHL1 C8   CRL1          -0.09        12.011       0
   15416 MEMB 9    CHL1 H8   HGA1           0.09         1.008       0
   15417 MEMB 9    CHL1 C14  CRL1          -0.09        12.011       0
   15418 MEMB 9    CHL1 H14  HGA1           0.09         1.008       0
   15419 MEMB 9    CHL1 C15  CRL2          -0.18        12.011       0
   15420 MEMB 9    CHL1 H15A HGA2           0.09         1.008       0
   15421 MEMB 9    CHL1 H15B HGA2           0.09         1.008       0
   15422 MEMB 9    CHL1 C16  CRL2          -0.18        12.011       0
   15423 MEMB 9    CHL1 H16A HGA2           0.09         1.008       0
   15424 MEMB 9    CHL1 H16B HGA2           0.09         1.008       0
   15425 MEMB 9    CHL1 C17  CRL1          -0.09        12.011       0
   15426 MEMB 9    CHL1 H17  HGA1           0.09         1.008       0
   15427 MEMB 9    CHL1 C13  CRL1              0        12.011       0
   15428 MEMB 9    CHL1 C18  CTL3          -0.27        12.011       0
   15429 MEMB 9    CHL1 H18A HAL3           0.09         1.008       0
   15430 MEMB 9    CHL1 H18B HAL3           0.09         1.008       0
   15431 MEMB 9    CHL1 H18C HAL3           0.09         1.008       0
   15432 MEMB 9    CHL1 C12  CRL2          -0.18        12.011       0
   15433 MEMB 9    CHL1 H12A HGA2           0.09         1.008       0
   15434 MEMB 9    CHL1 H12B HGA2           0.09         1.008       0
   15435 MEMB 9    CHL1 C11  CRL2          -0.18        12.011       0
   15436 MEMB 9    CHL1 H11A HGA2           0.09         1.008       0
   15437 MEMB 9    CHL1 H11B HGA2           0.09         1.008       0
   15438 MEMB 9    CHL1 C9   CRL1          -0.09        12.011       0
   15439 MEMB 9    CHL1 H9   HGA1           0.09         1.008       0
   15440 MEMB 9    CHL1 C10  CRL1              0        12.011       0
   15441 MEMB 9    CHL1 C19  CTL3          -0.27        12.011       0
   15442 MEMB 9    CHL1 H19A HAL3           0.09         1.008       0
   15443 MEMB 9    CHL1 H19B HAL3           0.09         1.008       0
   15444 MEMB 9    CHL1 H19C HAL3           0.09         1.008       0
   15445 MEMB 9    CHL1 C1   CRL2          -0.18        12.011       0
   15446 MEMB 9    CHL1 H1A  HGA2           0.09         1.008       0
   15447 MEMB 9    CHL1 H1B  HGA2           0.09         1.008       0
   15448 MEMB 9    CHL1 C2   CRL2          -0.18        12.011       0
   15449 MEMB 9    CHL1 H2A  HGA2           0.09         1.008       0
   15450 MEMB 9    CHL1 H2B  HGA2           0.09         1.008       0
   15451 MEMB 9    CHL1 C20  CTL1          -0.09        12.011       0
   15452 MEMB 9    CHL1 H20  HAL1           0.09         1.008       0
   15453 MEMB 9    CHL1 C21  CTL3          -0.27        12.011       0
   15454 MEMB 9    CHL1 H21A HAL3           0.09         1.008       0
   15455 MEMB 9    CHL1 H21B HAL3           0.09         1.008       0
   15456 MEMB 9    CHL1 H21C HAL3           0.09         1.008       0
   15457 MEMB 9    CHL1 C22  CTL2          -0.18        12.011       0
   15458 MEMB 9    CHL1 H22A HAL2           0.09         1.008       0
   15459 MEMB 9    CHL1 H22B HAL2           0.09         1.008       0
   15460 MEMB 9    CHL1 C23  CTL2          -0.18        12.011       0
   15461 MEMB 9    CHL1 H23A HAL2           0.09         1.008       0
   15462 MEMB 9    CHL1 H23B HAL2           0.09         1.008       0
   15463 MEMB 9    CHL1 C24  CTL2          -0.18        12.011       0
   15464 MEMB 9    CHL1 H24A HAL2           0.09         1.008       0
   15465 MEMB 9    CHL1 H24B HAL2           0.09         1.008       0
   15466 MEMB 9    CHL1 C25  CTL1          -0.09        12.011       0
   15467 MEMB 9    CHL1 H25  HAL1           0.09         1.008       0
   15468 MEMB 9    CHL1 C26  CTL3          -0.27        12.011       0
   15469 MEMB 9    CHL1 H26A HAL3           0.09         1.008       0
   15470 MEMB 9    CHL1 H26B HAL3           0.09         1.008       0
   15471 MEMB 9    CHL1 H26C HAL3           0.09         1.008       0
   15472 MEMB 9    CHL1 C27  CTL3          -0.27        12.011       0
   15473 MEMB 9    CHL1 H27A HAL3           0.09         1.008       0
   15474 MEMB 9    CHL1 H27B HAL3           0.09         1.008       0
   15475 MEMB 9    CHL1 H27C HAL3           0.09         1.008       0
   15476 MEMB 10   CHL1 C3   CRL1           0.14        12.011       0
   15477 MEMB 10   CHL1 H3   HGA1           0.09         1.008       0
   15478 MEMB 10   CHL1 O3   OHL           -0.66       15.9994       0
   15479 MEMB 10   CHL1 H3'  HOL            0.43         1.008       0
   15480 MEMB 10   CHL1 C4   CRL2          -0.18        12.011       0
   15481 MEMB 10   CHL1 H4A  HGA2           0.09         1.008       0
   15482 MEMB 10   CHL1 H4B  HGA2           0.09         1.008       0
   15483 MEMB 10   CHL1 C5   CEL1              0        12.011       0
   15484 MEMB 10   CHL1 C6   CEL1          -0.15        12.011       0
   15485 MEMB 10   CHL1 H6   HEL1           0.15         1.008       0
   15486 MEMB 10   CHL1 C7   CRL2          -0.18        12.011       0
   15487 MEMB 10   CHL1 H7A  HGA2           0.09         1.008       0
   15488 MEMB 10   CHL1 H7B  HGA2           0.09         1.008       0
   15489 MEMB 10   CHL1 C8   CRL1          -0.09        12.011       0
   15490 MEMB 10   CHL1 H8   HGA1           0.09         1.008       0
   15491 MEMB 10   CHL1 C14  CRL1          -0.09        12.011       0
   15492 MEMB 10   CHL1 H14  HGA1           0.09         1.008       0
   15493 MEMB 10   CHL1 C15  CRL2          -0.18        12.011       0
   15494 MEMB 10   CHL1 H15A HGA2           0.09         1.008       0
   15495 MEMB 10   CHL1 H15B HGA2           0.09         1.008       0
   15496 MEMB 10   CHL1 C16  CRL2          -0.18        12.011       0
   15497 MEMB 10   CHL1 H16A HGA2           0.09         1.008       0
   15498 MEMB 10   CHL1 H16B HGA2           0.09         1.008       0
   15499 MEMB 10   CHL1 C17  CRL1          -0.09        12.011       0
   15500 MEMB 10   CHL1 H17  HGA1           0.09         1.008       0
   15501 MEMB 10   CHL1 C13  CRL1              0        12.011       0
   15502 MEMB 10   CHL1 C18  CTL3          -0.27        12.011       0
   15503 MEMB 10   CHL1 H18A HAL3           0.09         1.008       0
   15504 MEMB 10   CHL1 H18B HAL3           0.09         1.008       0
   15505 MEMB 10   CHL1 H18C HAL3           0.09         1.008       0
   15506 MEMB 10   CHL1 C12  CRL2          -0.18        12.011       0
   15507 MEMB 10   CHL1 H12A HGA2           0.09         1.008       0
   15508 MEMB 10   CHL1 H12B HGA2           0.09         1.008       0
   15509 MEMB 10   CHL1 C11  CRL2          -0.18        12.011       0
   15510 MEMB 10   CHL1 H11A HGA2           0.09         1.008       0
   15511 MEMB 10   CHL1 H11B HGA2           0.09         1.008       0
   15512 MEMB 10   CHL1 C9   CRL1          -0.09        12.011       0
   15513 MEMB 10   CHL1 H9   HGA1           0.09         1.008       0
   15514 MEMB 10   CHL1 C10  CRL1              0        12.011       0
   15515 MEMB 10   CHL1 C19  CTL3          -0.27        12.011       0
   15516 MEMB 10   CHL1 H19A HAL3           0.09         1.008       0
   15517 MEMB 10   CHL1 H19B HAL3           0.09         1.008       0
   15518 MEMB 10   CHL1 H19C HAL3           0.09         1.008       0
   15519 MEMB 10   CHL1 C1   CRL2          -0.18        12.011       0
   15520 MEMB 10   CHL1 H1A  HGA2           0.09         1.008       0
   15521 MEMB 10   CHL1 H1B  HGA2           0.09         1.008       0
   15522 MEMB 10   CHL1 C2   CRL2          -0.18        12.011       0
   15523 MEMB 10   CHL1 H2A  HGA2           0.09         1.008       0
   15524 MEMB 10   CHL1 H2B  HGA2           0.09         1.008       0
   15525 MEMB 10   CHL1 C20  CTL1          -0.09        12.011       0
   15526 MEMB 10   CHL1 H20  HAL1           0.09         1.008       0
   15527 MEMB 10   CHL1 C21  CTL3          -0.27        12.011       0
   15528 MEMB 10   CHL1 H21A HAL3           0.09         1.008       0
   15529 MEMB 10   CHL1 H21B HAL3           0.09         1.008       0
   15530 MEMB 10   CHL1 H21C HAL3           0.09         1.008       0
   15531 MEMB 10   CHL1 C22  CTL2          -0.18        12.011       0
   15532 MEMB 10   CHL1 H22A HAL2           0.09         1.008       0
   15533 MEMB 10   CHL1 H22B HAL2           0.09         1.008       0
   15534 MEMB 10   CHL1 C23  CTL2          -0.18        12.011       0
   15535 MEMB 10   CHL1 H23A HAL2           0.09         1.008       0
   15536 MEMB 10   CHL1 H23B HAL2           0.09         1.008       0
   15537 MEMB 10   CHL1 C24  CTL2          -0.18        12.011       0
   15538 MEMB 10   CHL1 H24A HAL2           0.09         1.008       0
   15539 MEMB 10   CHL1 H24B HAL2           0.09         1.008       0
   15540 MEMB 10   CHL1 C25  CTL1          -0.09        12.011       0
   15541 MEMB 10   CHL1 H25  HAL1           0.09         1.008       0
   15542 MEMB 10   CHL1 C26  CTL3          -0.27        12.011       0
   15543 MEMB 10   CHL1 H26A HAL3           0.09         1.008       0
   15544 MEMB 10   CHL1 H26B HAL3           0.09         1.008       0
   15545 MEMB 10   CHL1 H26C HAL3           0.09         1.008       0
   15546 MEMB 10   CHL1 C27  CTL3          -0.27        12.011       0
   15547 MEMB 10   CHL1 H27A HAL3           0.09         1.008       0
   15548 MEMB 10   CHL1 H27B HAL3           0.09         1.008       0
   15549 MEMB 10   CHL1 H27C HAL3           0.09         1.008       0
   15550 MEMB 11   CHL1 C3   CRL1           0.14        12.011       0
   15551 MEMB 11   CHL1 H3   HGA1           0.09         1.008       0
   15552 MEMB 11   CHL1 O3   OHL           -0.66       15.9994       0
   15553 MEMB 11   CHL1 H3'  HOL            0.43         1.008       0
   15554 MEMB 11   CHL1 C4   CRL2          -0.18        12.011       0
   15555 MEMB 11   CHL1 H4A  HGA2           0.09         1.008       0
   15556 MEMB 11   CHL1 H4B  HGA2           0.09         1.008       0
   15557 MEMB 11   CHL1 C5   CEL1              0        12.011       0
   15558 MEMB 11   CHL1 C6   CEL1          -0.15        12.011       0
   15559 MEMB 11   CHL1 H6   HEL1           0.15         1.008       0
   15560 MEMB 11   CHL1 C7   CRL2          -0.18        12.011       0
   15561 MEMB 11   CHL1 H7A  HGA2           0.09         1.008       0
   15562 MEMB 11   CHL1 H7B  HGA2           0.09         1.008       0
   15563 MEMB 11   CHL1 C8   CRL1          -0.09        12.011       0
   15564 MEMB 11   CHL1 H8   HGA1           0.09         1.008       0
   15565 MEMB 11   CHL1 C14  CRL1          -0.09        12.011       0
   15566 MEMB 11   CHL1 H14  HGA1           0.09         1.008       0
   15567 MEMB 11   CHL1 C15  CRL2          -0.18        12.011       0
   15568 MEMB 11   CHL1 H15A HGA2           0.09         1.008       0
   15569 MEMB 11   CHL1 H15B HGA2           0.09         1.008       0
   15570 MEMB 11   CHL1 C16  CRL2          -0.18        12.011       0
   15571 MEMB 11   CHL1 H16A HGA2           0.09         1.008       0
   15572 MEMB 11   CHL1 H16B HGA2           0.09         1.008       0
   15573 MEMB 11   CHL1 C17  CRL1          -0.09        12.011       0
   15574 MEMB 11   CHL1 H17  HGA1           0.09         1.008       0
   15575 MEMB 11   CHL1 C13  CRL1              0        12.011       0
   15576 MEMB 11   CHL1 C18  CTL3          -0.27        12.011       0
   15577 MEMB 11   CHL1 H18A HAL3           0.09         1.008       0
   15578 MEMB 11   CHL1 H18B HAL3           0.09         1.008       0
   15579 MEMB 11   CHL1 H18C HAL3           0.09         1.008       0
   15580 MEMB 11   CHL1 C12  CRL2          -0.18        12.011       0
   15581 MEMB 11   CHL1 H12A HGA2           0.09         1.008       0
   15582 MEMB 11   CHL1 H12B HGA2           0.09         1.008       0
   15583 MEMB 11   CHL1 C11  CRL2          -0.18        12.011       0
   15584 MEMB 11   CHL1 H11A HGA2           0.09         1.008       0
   15585 MEMB 11   CHL1 H11B HGA2           0.09         1.008       0
   15586 MEMB 11   CHL1 C9   CRL1          -0.09        12.011       0
   15587 MEMB 11   CHL1 H9   HGA1           0.09         1.008       0
   15588 MEMB 11   CHL1 C10  CRL1              0        12.011       0
   15589 MEMB 11   CHL1 C19  CTL3          -0.27        12.011       0
   15590 MEMB 11   CHL1 H19A HAL3           0.09         1.008       0
   15591 MEMB 11   CHL1 H19B HAL3           0.09         1.008       0
   15592 MEMB 11   CHL1 H19C HAL3           0.09         1.008       0
   15593 MEMB 11   CHL1 C1   CRL2          -0.18        12.011       0
   15594 MEMB 11   CHL1 H1A  HGA2           0.09         1.008       0
   15595 MEMB 11   CHL1 H1B  HGA2           0.09         1.008       0
   15596 MEMB 11   CHL1 C2   CRL2          -0.18        12.011       0
   15597 MEMB 11   CHL1 H2A  HGA2           0.09         1.008       0
   15598 MEMB 11   CHL1 H2B  HGA2           0.09         1.008       0
   15599 MEMB 11   CHL1 C20  CTL1          -0.09        12.011       0
   15600 MEMB 11   CHL1 H20  HAL1           0.09         1.008       0
   15601 MEMB 11   CHL1 C21  CTL3          -0.27        12.011       0
   15602 MEMB 11   CHL1 H21A HAL3           0.09         1.008       0
   15603 MEMB 11   CHL1 H21B HAL3           0.09         1.008       0
   15604 MEMB 11   CHL1 H21C HAL3           0.09         1.008       0
   15605 MEMB 11   CHL1 C22  CTL2          -0.18        12.011       0
   15606 MEMB 11   CHL1 H22A HAL2           0.09         1.008       0
   15607 MEMB 11   CHL1 H22B HAL2           0.09         1.008       0
   15608 MEMB 11   CHL1 C23  CTL2          -0.18        12.011       0
   15609 MEMB 11   CHL1 H23A HAL2           0.09         1.008       0
   15610 MEMB 11   CHL1 H23B HAL2           0.09         1.008       0
   15611 MEMB 11   CHL1 C24  CTL2          -0.18        12.011       0
   15612 MEMB 11   CHL1 H24A HAL2           0.09         1.008       0
   15613 MEMB 11   CHL1 H24B HAL2           0.09         1.008       0
   15614 MEMB 11   CHL1 C25  CTL1          -0.09        12.011       0
   15615 MEMB 11   CHL1 H25  HAL1           0.09         1.008       0
   15616 MEMB 11   CHL1 C26  CTL3          -0.27        12.011       0
   15617 MEMB 11   CHL1 H26A HAL3           0.09         1.008       0
   15618 MEMB 11   CHL1 H26B HAL3           0.09         1.008       0
   15619 MEMB 11   CHL1 H26C HAL3           0.09         1.008       0
   15620 MEMB 11   CHL1 C27  CTL3          -0.27        12.011       0
   15621 MEMB 11   CHL1 H27A HAL3           0.09         1.008       0
   15622 MEMB 11   CHL1 H27B HAL3           0.09         1.008       0
   15623 MEMB 11   CHL1 H27C HAL3           0.09         1.008       0
   15624 MEMB 12   CHL1 C3   CRL1           0.14        12.011       0
   15625 MEMB 12   CHL1 H3   HGA1           0.09         1.008       0
   15626 MEMB 12   CHL1 O3   OHL           -0.66       15.9994       0
   15627 MEMB 12   CHL1 H3'  HOL            0.43         1.008       0
   15628 MEMB 12   CHL1 C4   CRL2          -0.18        12.011       0
   15629 MEMB 12   CHL1 H4A  HGA2           0.09         1.008       0
   15630 MEMB 12   CHL1 H4B  HGA2           0.09         1.008       0
   15631 MEMB 12   CHL1 C5   CEL1              0        12.011       0
   15632 MEMB 12   CHL1 C6   CEL1          -0.15        12.011       0
   15633 MEMB 12   CHL1 H6   HEL1           0.15         1.008       0
   15634 MEMB 12   CHL1 C7   CRL2          -0.18        12.011       0
   15635 MEMB 12   CHL1 H7A  HGA2           0.09         1.008       0
   15636 MEMB 12   CHL1 H7B  HGA2           0.09         1.008       0
   15637 MEMB 12   CHL1 C8   CRL1          -0.09        12.011       0
   15638 MEMB 12   CHL1 H8   HGA1           0.09         1.008       0
   15639 MEMB 12   CHL1 C14  CRL1          -0.09        12.011       0
   15640 MEMB 12   CHL1 H14  HGA1           0.09         1.008       0
   15641 MEMB 12   CHL1 C15  CRL2          -0.18        12.011       0
   15642 MEMB 12   CHL1 H15A HGA2           0.09         1.008       0
   15643 MEMB 12   CHL1 H15B HGA2           0.09         1.008       0
   15644 MEMB 12   CHL1 C16  CRL2          -0.18        12.011       0
   15645 MEMB 12   CHL1 H16A HGA2           0.09         1.008       0
   15646 MEMB 12   CHL1 H16B HGA2           0.09         1.008       0
   15647 MEMB 12   CHL1 C17  CRL1          -0.09        12.011       0
   15648 MEMB 12   CHL1 H17  HGA1           0.09         1.008       0
   15649 MEMB 12   CHL1 C13  CRL1              0        12.011       0
   15650 MEMB 12   CHL1 C18  CTL3          -0.27        12.011       0
   15651 MEMB 12   CHL1 H18A HAL3           0.09         1.008       0
   15652 MEMB 12   CHL1 H18B HAL3           0.09         1.008       0
   15653 MEMB 12   CHL1 H18C HAL3           0.09         1.008       0
   15654 MEMB 12   CHL1 C12  CRL2          -0.18        12.011       0
   15655 MEMB 12   CHL1 H12A HGA2           0.09         1.008       0
   15656 MEMB 12   CHL1 H12B HGA2           0.09         1.008       0
   15657 MEMB 12   CHL1 C11  CRL2          -0.18        12.011       0
   15658 MEMB 12   CHL1 H11A HGA2           0.09         1.008       0
   15659 MEMB 12   CHL1 H11B HGA2           0.09         1.008       0
   15660 MEMB 12   CHL1 C9   CRL1          -0.09        12.011       0
   15661 MEMB 12   CHL1 H9   HGA1           0.09         1.008       0
   15662 MEMB 12   CHL1 C10  CRL1              0        12.011       0
   15663 MEMB 12   CHL1 C19  CTL3          -0.27        12.011       0
   15664 MEMB 12   CHL1 H19A HAL3           0.09         1.008       0
   15665 MEMB 12   CHL1 H19B HAL3           0.09         1.008       0
   15666 MEMB 12   CHL1 H19C HAL3           0.09         1.008       0
   15667 MEMB 12   CHL1 C1   CRL2          -0.18        12.011       0
   15668 MEMB 12   CHL1 H1A  HGA2           0.09         1.008       0
   15669 MEMB 12   CHL1 H1B  HGA2           0.09         1.008       0
   15670 MEMB 12   CHL1 C2   CRL2          -0.18        12.011       0
   15671 MEMB 12   CHL1 H2A  HGA2           0.09         1.008       0
   15672 MEMB 12   CHL1 H2B  HGA2           0.09         1.008       0
   15673 MEMB 12   CHL1 C20  CTL1          -0.09        12.011       0
   15674 MEMB 12   CHL1 H20  HAL1           0.09         1.008       0
   15675 MEMB 12   CHL1 C21  CTL3          -0.27        12.011       0
   15676 MEMB 12   CHL1 H21A HAL3           0.09         1.008       0
   15677 MEMB 12   CHL1 H21B HAL3           0.09         1.008       0
   15678 MEMB 12   CHL1 H21C HAL3           0.09         1.008       0
   15679 MEMB 12   CHL1 C22  CTL2          -0.18        12.011       0
   15680 MEMB 12   CHL1 H22A HAL2           0.09         1.008       0
   15681 MEMB 12   CHL1 H22B HAL2           0.09         1.008       0
   15682 MEMB 12   CHL1 C23  CTL2          -0.18        12.011       0
   15683 MEMB 12   CHL1 H23A HAL2           0.09         1.008       0
   15684 MEMB 12   CHL1 H23B HAL2           0.09         1.008       0
   15685 MEMB 12   CHL1 C24  CTL2          -0.18        12.011       0
   15686 MEMB 12   CHL1 H24A HAL2           0.09         1.008       0
   15687 MEMB 12   CHL1 H24B HAL2           0.09         1.008       0
   15688 MEMB 12   CHL1 C25  CTL1          -0.09        12.011       0
   15689 MEMB 12   CHL1 H25  HAL1           0.09         1.008       0
   15690 MEMB 12   CHL1 C26  CTL3          -0.27        12.011       0
   15691 MEMB 12   CHL1 H26A HAL3           0.09         1.008       0
   15692 MEMB 12   CHL1 H26B HAL3           0.09         1.008       0
   15693 MEMB 12   CHL1 H26C HAL3           0.09         1.008       0
   15694 MEMB 12   CHL1 C27  CTL3          -0.27        12.011       0
   15695 MEMB 12   CHL1 H27A HAL3           0.09         1.008       0
   15696 MEMB 12   CHL1 H27B HAL3           0.09         1.008       0
   15697 MEMB 12   CHL1 H27C HAL3           0.09         1.008       0
   15698 MEMB 13   CHL1 C3   CRL1           0.14        12.011       0
   15699 MEMB 13   CHL1 H3   HGA1           0.09         1.008       0
   15700 MEMB 13   CHL1 O3   OHL           -0.66       15.9994       0
   15701 MEMB 13   CHL1 H3'  HOL            0.43         1.008       0
   15702 MEMB 13   CHL1 C4   CRL2          -0.18        12.011       0
   15703 MEMB 13   CHL1 H4A  HGA2           0.09         1.008       0
   15704 MEMB 13   CHL1 H4B  HGA2           0.09         1.008       0
   15705 MEMB 13   CHL1 C5   CEL1              0        12.011       0
   15706 MEMB 13   CHL1 C6   CEL1          -0.15        12.011       0
   15707 MEMB 13   CHL1 H6   HEL1           0.15         1.008       0
   15708 MEMB 13   CHL1 C7   CRL2          -0.18        12.011       0
   15709 MEMB 13   CHL1 H7A  HGA2           0.09         1.008       0
   15710 MEMB 13   CHL1 H7B  HGA2           0.09         1.008       0
   15711 MEMB 13   CHL1 C8   CRL1          -0.09        12.011       0
   15712 MEMB 13   CHL1 H8   HGA1           0.09         1.008       0
   15713 MEMB 13   CHL1 C14  CRL1          -0.09        12.011       0
   15714 MEMB 13   CHL1 H14  HGA1           0.09         1.008       0
   15715 MEMB 13   CHL1 C15  CRL2          -0.18        12.011       0
   15716 MEMB 13   CHL1 H15A HGA2           0.09         1.008       0
   15717 MEMB 13   CHL1 H15B HGA2           0.09         1.008       0
   15718 MEMB 13   CHL1 C16  CRL2          -0.18        12.011       0
   15719 MEMB 13   CHL1 H16A HGA2           0.09         1.008       0
   15720 MEMB 13   CHL1 H16B HGA2           0.09         1.008       0
   15721 MEMB 13   CHL1 C17  CRL1          -0.09        12.011       0
   15722 MEMB 13   CHL1 H17  HGA1           0.09         1.008       0
   15723 MEMB 13   CHL1 C13  CRL1              0        12.011       0
   15724 MEMB 13   CHL1 C18  CTL3          -0.27        12.011       0
   15725 MEMB 13   CHL1 H18A HAL3           0.09         1.008       0
   15726 MEMB 13   CHL1 H18B HAL3           0.09         1.008       0
   15727 MEMB 13   CHL1 H18C HAL3           0.09         1.008       0
   15728 MEMB 13   CHL1 C12  CRL2          -0.18        12.011       0
   15729 MEMB 13   CHL1 H12A HGA2           0.09         1.008       0
   15730 MEMB 13   CHL1 H12B HGA2           0.09         1.008       0
   15731 MEMB 13   CHL1 C11  CRL2          -0.18        12.011       0
   15732 MEMB 13   CHL1 H11A HGA2           0.09         1.008       0
   15733 MEMB 13   CHL1 H11B HGA2           0.09         1.008       0
   15734 MEMB 13   CHL1 C9   CRL1          -0.09        12.011       0
   15735 MEMB 13   CHL1 H9   HGA1           0.09         1.008       0
   15736 MEMB 13   CHL1 C10  CRL1              0        12.011       0
   15737 MEMB 13   CHL1 C19  CTL3          -0.27        12.011       0
   15738 MEMB 13   CHL1 H19A HAL3           0.09         1.008       0
   15739 MEMB 13   CHL1 H19B HAL3           0.09         1.008       0
   15740 MEMB 13   CHL1 H19C HAL3           0.09         1.008       0
   15741 MEMB 13   CHL1 C1   CRL2          -0.18        12.011       0
   15742 MEMB 13   CHL1 H1A  HGA2           0.09         1.008       0
   15743 MEMB 13   CHL1 H1B  HGA2           0.09         1.008       0
   15744 MEMB 13   CHL1 C2   CRL2          -0.18        12.011       0
   15745 MEMB 13   CHL1 H2A  HGA2           0.09         1.008       0
   15746 MEMB 13   CHL1 H2B  HGA2           0.09         1.008       0
   15747 MEMB 13   CHL1 C20  CTL1          -0.09        12.011       0
   15748 MEMB 13   CHL1 H20  HAL1           0.09         1.008       0
   15749 MEMB 13   CHL1 C21  CTL3          -0.27        12.011       0
   15750 MEMB 13   CHL1 H21A HAL3           0.09         1.008       0
   15751 MEMB 13   CHL1 H21B HAL3           0.09         1.008       0
   15752 MEMB 13   CHL1 H21C HAL3           0.09         1.008       0
   15753 MEMB 13   CHL1 C22  CTL2          -0.18        12.011       0
   15754 MEMB 13   CHL1 H22A HAL2           0.09         1.008       0
   15755 MEMB 13   CHL1 H22B HAL2           0.09         1.008       0
   15756 MEMB 13   CHL1 C23  CTL2          -0.18        12.011       0
   15757 MEMB 13   CHL1 H23A HAL2           0.09         1.008       0
   15758 MEMB 13   CHL1 H23B HAL2           0.09         1.008       0
   15759 MEMB 13   CHL1 C24  CTL2          -0.18        12.011       0
   15760 MEMB 13   CHL1 H24A HAL2           0.09         1.008       0
   15761 MEMB 13   CHL1 H24B HAL2           0.09         1.008       0
   15762 MEMB 13   CHL1 C25  CTL1          -0.09        12.011       0
   15763 MEMB 13   CHL1 H25  HAL1           0.09         1.008       0
   15764 MEMB 13   CHL1 C26  CTL3          -0.27        12.011       0
   15765 MEMB 13   CHL1 H26A HAL3           0.09         1.008       0
   15766 MEMB 13   CHL1 H26B HAL3           0.09         1.008       0
   15767 MEMB 13   CHL1 H26C HAL3           0.09         1.008       0
   15768 MEMB 13   CHL1 C27  CTL3          -0.27        12.011       0
   15769 MEMB 13   CHL1 H27A HAL3           0.09         1.008       0
   15770 MEMB 13   CHL1 H27B HAL3           0.09         1.008       0
   15771 MEMB 13   CHL1 H27C HAL3           0.09         1.008       0
   15772 MEMB 14   CHL1 C3   CRL1           0.14        12.011       0
   15773 MEMB 14   CHL1 H3   HGA1           0.09         1.008       0
   15774 MEMB 14   CHL1 O3   OHL           -0.66       15.9994       0
   15775 MEMB 14   CHL1 H3'  HOL            0.43         1.008       0
   15776 MEMB 14   CHL1 C4   CRL2          -0.18        12.011       0
   15777 MEMB 14   CHL1 H4A  HGA2           0.09         1.008       0
   15778 MEMB 14   CHL1 H4B  HGA2           0.09         1.008       0
   15779 MEMB 14   CHL1 C5   CEL1              0        12.011       0
   15780 MEMB 14   CHL1 C6   CEL1          -0.15        12.011       0
   15781 MEMB 14   CHL1 H6   HEL1           0.15         1.008       0
   15782 MEMB 14   CHL1 C7   CRL2          -0.18        12.011       0
   15783 MEMB 14   CHL1 H7A  HGA2           0.09         1.008       0
   15784 MEMB 14   CHL1 H7B  HGA2           0.09         1.008       0
   15785 MEMB 14   CHL1 C8   CRL1          -0.09        12.011       0
   15786 MEMB 14   CHL1 H8   HGA1           0.09         1.008       0
   15787 MEMB 14   CHL1 C14  CRL1          -0.09        12.011       0
   15788 MEMB 14   CHL1 H14  HGA1           0.09         1.008       0
   15789 MEMB 14   CHL1 C15  CRL2          -0.18        12.011       0
   15790 MEMB 14   CHL1 H15A HGA2           0.09         1.008       0
   15791 MEMB 14   CHL1 H15B HGA2           0.09         1.008       0
   15792 MEMB 14   CHL1 C16  CRL2          -0.18        12.011       0
   15793 MEMB 14   CHL1 H16A HGA2           0.09         1.008       0
   15794 MEMB 14   CHL1 H16B HGA2           0.09         1.008       0
   15795 MEMB 14   CHL1 C17  CRL1          -0.09        12.011       0
   15796 MEMB 14   CHL1 H17  HGA1           0.09         1.008       0
   15797 MEMB 14   CHL1 C13  CRL1              0        12.011       0
   15798 MEMB 14   CHL1 C18  CTL3          -0.27        12.011       0
   15799 MEMB 14   CHL1 H18A HAL3           0.09         1.008       0
   15800 MEMB 14   CHL1 H18B HAL3           0.09         1.008       0
   15801 MEMB 14   CHL1 H18C HAL3           0.09         1.008       0
   15802 MEMB 14   CHL1 C12  CRL2          -0.18        12.011       0
   15803 MEMB 14   CHL1 H12A HGA2           0.09         1.008       0
   15804 MEMB 14   CHL1 H12B HGA2           0.09         1.008       0
   15805 MEMB 14   CHL1 C11  CRL2          -0.18        12.011       0
   15806 MEMB 14   CHL1 H11A HGA2           0.09         1.008       0
   15807 MEMB 14   CHL1 H11B HGA2           0.09         1.008       0
   15808 MEMB 14   CHL1 C9   CRL1          -0.09        12.011       0
   15809 MEMB 14   CHL1 H9   HGA1           0.09         1.008       0
   15810 MEMB 14   CHL1 C10  CRL1              0        12.011       0
   15811 MEMB 14   CHL1 C19  CTL3          -0.27        12.011       0
   15812 MEMB 14   CHL1 H19A HAL3           0.09         1.008       0
   15813 MEMB 14   CHL1 H19B HAL3           0.09         1.008       0
   15814 MEMB 14   CHL1 H19C HAL3           0.09         1.008       0
   15815 MEMB 14   CHL1 C1   CRL2          -0.18        12.011       0
   15816 MEMB 14   CHL1 H1A  HGA2           0.09         1.008       0
   15817 MEMB 14   CHL1 H1B  HGA2           0.09         1.008       0
   15818 MEMB 14   CHL1 C2   CRL2          -0.18        12.011       0
   15819 MEMB 14   CHL1 H2A  HGA2           0.09         1.008       0
   15820 MEMB 14   CHL1 H2B  HGA2           0.09         1.008       0
   15821 MEMB 14   CHL1 C20  CTL1          -0.09        12.011       0
   15822 MEMB 14   CHL1 H20  HAL1           0.09         1.008       0
   15823 MEMB 14   CHL1 C21  CTL3          -0.27        12.011       0
   15824 MEMB 14   CHL1 H21A HAL3           0.09         1.008       0
   15825 MEMB 14   CHL1 H21B HAL3           0.09         1.008       0
   15826 MEMB 14   CHL1 H21C HAL3           0.09         1.008       0
   15827 MEMB 14   CHL1 C22  CTL2          -0.18        12.011       0
   15828 MEMB 14   CHL1 H22A HAL2           0.09         1.008       0
   15829 MEMB 14   CHL1 H22B HAL2           0.09         1.008       0
   15830 MEMB 14   CHL1 C23  CTL2          -0.18        12.011       0
   15831 MEMB 14   CHL1 H23A HAL2           0.09         1.008       0
   15832 MEMB 14   CHL1 H23B HAL2           0.09         1.008       0
   15833 MEMB 14   CHL1 C24  CTL2          -0.18        12.011       0
   15834 MEMB 14   CHL1 H24A HAL2           0.09         1.008       0
   15835 MEMB 14   CHL1 H24B HAL2           0.09         1.008       0
   15836 MEMB 14   CHL1 C25  CTL1          -0.09        12.011       0
   15837 MEMB 14   CHL1 H25  HAL1           0.09         1.008       0
   15838 MEMB 14   CHL1 C26  CTL3          -0.27        12.011       0
   15839 MEMB 14   CHL1 H26A HAL3           0.09         1.008       0
   15840 MEMB 14   CHL1 H26B HAL3           0.09         1.008       0
   15841 MEMB 14   CHL1 H26C HAL3           0.09         1.008       0
   15842 MEMB 14   CHL1 C27  CTL3          -0.27        12.011       0
   15843 MEMB 14   CHL1 H27A HAL3           0.09         1.008       0
   15844 MEMB 14   CHL1 H27B HAL3           0.09         1.008       0
   15845 MEMB 14   CHL1 H27C HAL3           0.09         1.008       0
   15846 MEMB 15   CHL1 C3   CRL1           0.14        12.011       0
   15847 MEMB 15   CHL1 H3   HGA1           0.09         1.008       0
   15848 MEMB 15   CHL1 O3   OHL           -0.66       15.9994       0
   15849 MEMB 15   CHL1 H3'  HOL            0.43         1.008       0
   15850 MEMB 15   CHL1 C4   CRL2          -0.18        12.011       0
   15851 MEMB 15   CHL1 H4A  HGA2           0.09         1.008       0
   15852 MEMB 15   CHL1 H4B  HGA2           0.09         1.008       0
   15853 MEMB 15   CHL1 C5   CEL1              0        12.011       0
   15854 MEMB 15   CHL1 C6   CEL1          -0.15        12.011       0
   15855 MEMB 15   CHL1 H6   HEL1           0.15         1.008       0
   15856 MEMB 15   CHL1 C7   CRL2          -0.18        12.011       0
   15857 MEMB 15   CHL1 H7A  HGA2           0.09         1.008       0
   15858 MEMB 15   CHL1 H7B  HGA2           0.09         1.008       0
   15859 MEMB 15   CHL1 C8   CRL1          -0.09        12.011       0
   15860 MEMB 15   CHL1 H8   HGA1           0.09         1.008       0
   15861 MEMB 15   CHL1 C14  CRL1          -0.09        12.011       0
   15862 MEMB 15   CHL1 H14  HGA1           0.09         1.008       0
   15863 MEMB 15   CHL1 C15  CRL2          -0.18        12.011       0
   15864 MEMB 15   CHL1 H15A HGA2           0.09         1.008       0
   15865 MEMB 15   CHL1 H15B HGA2           0.09         1.008       0
   15866 MEMB 15   CHL1 C16  CRL2          -0.18        12.011       0
   15867 MEMB 15   CHL1 H16A HGA2           0.09         1.008       0
   15868 MEMB 15   CHL1 H16B HGA2           0.09         1.008       0
   15869 MEMB 15   CHL1 C17  CRL1          -0.09        12.011       0
   15870 MEMB 15   CHL1 H17  HGA1           0.09         1.008       0
   15871 MEMB 15   CHL1 C13  CRL1              0        12.011       0
   15872 MEMB 15   CHL1 C18  CTL3          -0.27        12.011       0
   15873 MEMB 15   CHL1 H18A HAL3           0.09         1.008       0
   15874 MEMB 15   CHL1 H18B HAL3           0.09         1.008       0
   15875 MEMB 15   CHL1 H18C HAL3           0.09         1.008       0
   15876 MEMB 15   CHL1 C12  CRL2          -0.18        12.011       0
   15877 MEMB 15   CHL1 H12A HGA2           0.09         1.008       0
   15878 MEMB 15   CHL1 H12B HGA2           0.09         1.008       0
   15879 MEMB 15   CHL1 C11  CRL2          -0.18        12.011       0
   15880 MEMB 15   CHL1 H11A HGA2           0.09         1.008       0
   15881 MEMB 15   CHL1 H11B HGA2           0.09         1.008       0
   15882 MEMB 15   CHL1 C9   CRL1          -0.09        12.011       0
   15883 MEMB 15   CHL1 H9   HGA1           0.09         1.008       0
   15884 MEMB 15   CHL1 C10  CRL1              0        12.011       0
   15885 MEMB 15   CHL1 C19  CTL3          -0.27        12.011       0
   15886 MEMB 15   CHL1 H19A HAL3           0.09         1.008       0
   15887 MEMB 15   CHL1 H19B HAL3           0.09         1.008       0
   15888 MEMB 15   CHL1 H19C HAL3           0.09         1.008       0
   15889 MEMB 15   CHL1 C1   CRL2          -0.18        12.011       0
   15890 MEMB 15   CHL1 H1A  HGA2           0.09         1.008       0
   15891 MEMB 15   CHL1 H1B  HGA2           0.09         1.008       0
   15892 MEMB 15   CHL1 C2   CRL2          -0.18        12.011       0
   15893 MEMB 15   CHL1 H2A  HGA2           0.09         1.008       0
   15894 MEMB 15   CHL1 H2B  HGA2           0.09         1.008       0
   15895 MEMB 15   CHL1 C20  CTL1          -0.09        12.011       0
   15896 MEMB 15   CHL1 H20  HAL1           0.09         1.008       0
   15897 MEMB 15   CHL1 C21  CTL3          -0.27        12.011       0
   15898 MEMB 15   CHL1 H21A HAL3           0.09         1.008       0
   15899 MEMB 15   CHL1 H21B HAL3           0.09         1.008       0
   15900 MEMB 15   CHL1 H21C HAL3           0.09         1.008       0
   15901 MEMB 15   CHL1 C22  CTL2          -0.18        12.011       0
   15902 MEMB 15   CHL1 H22A HAL2           0.09         1.008       0
   15903 MEMB 15   CHL1 H22B HAL2           0.09         1.008       0
   15904 MEMB 15   CHL1 C23  CTL2          -0.18        12.011       0
   15905 MEMB 15   CHL1 H23A HAL2           0.09         1.008       0
   15906 MEMB 15   CHL1 H23B HAL2           0.09         1.008       0
   15907 MEMB 15   CHL1 C24  CTL2          -0.18        12.011       0
   15908 MEMB 15   CHL1 H24A HAL2           0.09         1.008       0
   15909 MEMB 15   CHL1 H24B HAL2           0.09         1.008       0
   15910 MEMB 15   CHL1 C25  CTL1          -0.09        12.011       0
   15911 MEMB 15   CHL1 H25  HAL1           0.09         1.008       0
   15912 MEMB 15   CHL1 C26  CTL3          -0.27        12.011       0
   15913 MEMB 15   CHL1 H26A HAL3           0.09         1.008       0
   15914 MEMB 15   CHL1 H26B HAL3           0.09         1.008       0
   15915 MEMB 15   CHL1 H26C HAL3           0.09         1.008       0
   15916 MEMB 15   CHL1 C27  CTL3          -0.27        12.011       0
   15917 MEMB 15   CHL1 H27A HAL3           0.09         1.008       0
   15918 MEMB 15   CHL1 H27B HAL3           0.09         1.008       0
   15919 MEMB 15   CHL1 H27C HAL3           0.09         1.008       0
   15920 MEMB 16   CHL1 C3   CRL1           0.14        12.011       0
   15921 MEMB 16   CHL1 H3   HGA1           0.09         1.008       0
   15922 MEMB 16   CHL1 O3   OHL           -0.66       15.9994       0
   15923 MEMB 16   CHL1 H3'  HOL            0.43         1.008       0
   15924 MEMB 16   CHL1 C4   CRL2          -0.18        12.011       0
   15925 MEMB 16   CHL1 H4A  HGA2           0.09         1.008       0
   15926 MEMB 16   CHL1 H4B  HGA2           0.09         1.008       0
   15927 MEMB 16   CHL1 C5   CEL1              0        12.011       0
   15928 MEMB 16   CHL1 C6   CEL1          -0.15        12.011       0
   15929 MEMB 16   CHL1 H6   HEL1           0.15         1.008       0
   15930 MEMB 16   CHL1 C7   CRL2          -0.18        12.011       0
   15931 MEMB 16   CHL1 H7A  HGA2           0.09         1.008       0
   15932 MEMB 16   CHL1 H7B  HGA2           0.09         1.008       0
   15933 MEMB 16   CHL1 C8   CRL1          -0.09        12.011       0
   15934 MEMB 16   CHL1 H8   HGA1           0.09         1.008       0
   15935 MEMB 16   CHL1 C14  CRL1          -0.09        12.011       0
   15936 MEMB 16   CHL1 H14  HGA1           0.09         1.008       0
   15937 MEMB 16   CHL1 C15  CRL2          -0.18        12.011       0
   15938 MEMB 16   CHL1 H15A HGA2           0.09         1.008       0
   15939 MEMB 16   CHL1 H15B HGA2           0.09         1.008       0
   15940 MEMB 16   CHL1 C16  CRL2          -0.18        12.011       0
   15941 MEMB 16   CHL1 H16A HGA2           0.09         1.008       0
   15942 MEMB 16   CHL1 H16B HGA2           0.09         1.008       0
   15943 MEMB 16   CHL1 C17  CRL1          -0.09        12.011       0
   15944 MEMB 16   CHL1 H17  HGA1           0.09         1.008       0
   15945 MEMB 16   CHL1 C13  CRL1              0        12.011       0
   15946 MEMB 16   CHL1 C18  CTL3          -0.27        12.011       0
   15947 MEMB 16   CHL1 H18A HAL3           0.09         1.008       0
   15948 MEMB 16   CHL1 H18B HAL3           0.09         1.008       0
   15949 MEMB 16   CHL1 H18C HAL3           0.09         1.008       0
   15950 MEMB 16   CHL1 C12  CRL2          -0.18        12.011       0
   15951 MEMB 16   CHL1 H12A HGA2           0.09         1.008       0
   15952 MEMB 16   CHL1 H12B HGA2           0.09         1.008       0
   15953 MEMB 16   CHL1 C11  CRL2          -0.18        12.011       0
   15954 MEMB 16   CHL1 H11A HGA2           0.09         1.008       0
   15955 MEMB 16   CHL1 H11B HGA2           0.09         1.008       0
   15956 MEMB 16   CHL1 C9   CRL1          -0.09        12.011       0
   15957 MEMB 16   CHL1 H9   HGA1           0.09         1.008       0
   15958 MEMB 16   CHL1 C10  CRL1              0        12.011       0
   15959 MEMB 16   CHL1 C19  CTL3          -0.27        12.011       0
   15960 MEMB 16   CHL1 H19A HAL3           0.09         1.008       0
   15961 MEMB 16   CHL1 H19B HAL3           0.09         1.008       0
   15962 MEMB 16   CHL1 H19C HAL3           0.09         1.008       0
   15963 MEMB 16   CHL1 C1   CRL2          -0.18        12.011       0
   15964 MEMB 16   CHL1 H1A  HGA2           0.09         1.008       0
   15965 MEMB 16   CHL1 H1B  HGA2           0.09         1.008       0
   15966 MEMB 16   CHL1 C2   CRL2          -0.18        12.011       0
   15967 MEMB 16   CHL1 H2A  HGA2           0.09         1.008       0
   15968 MEMB 16   CHL1 H2B  HGA2           0.09         1.008       0
   15969 MEMB 16   CHL1 C20  CTL1          -0.09        12.011       0
   15970 MEMB 16   CHL1 H20  HAL1           0.09         1.008       0
   15971 MEMB 16   CHL1 C21  CTL3          -0.27        12.011       0
   15972 MEMB 16   CHL1 H21A HAL3           0.09         1.008       0
   15973 MEMB 16   CHL1 H21B HAL3           0.09         1.008       0
   15974 MEMB 16   CHL1 H21C HAL3           0.09         1.008       0
   15975 MEMB 16   CHL1 C22  CTL2          -0.18        12.011       0
   15976 MEMB 16   CHL1 H22A HAL2           0.09         1.008       0
   15977 MEMB 16   CHL1 H22B HAL2           0.09         1.008       0
   15978 MEMB 16   CHL1 C23  CTL2          -0.18        12.011       0
   15979 MEMB 16   CHL1 H23A HAL2           0.09         1.008       0
   15980 MEMB 16   CHL1 H23B HAL2           0.09         1.008       0
   15981 MEMB 16   CHL1 C24  CTL2          -0.18        12.011       0
   15982 MEMB 16   CHL1 H24A HAL2           0.09         1.008       0
   15983 MEMB 16   CHL1 H24B HAL2           0.09         1.008       0
   15984 MEMB 16   CHL1 C25  CTL1          -0.09        12.011       0
   15985 MEMB 16   CHL1 H25  HAL1           0.09         1.008       0
   15986 MEMB 16   CHL1 C26  CTL3          -0.27        12.011       0
   15987 MEMB 16   CHL1 H26A HAL3           0.09         1.008       0
   15988 MEMB 16   CHL1 H26B HAL3           0.09         1.008       0
   15989 MEMB 16   CHL1 H26C HAL3           0.09         1.008       0
   15990 MEMB 16   CHL1 C27  CTL3          -0.27        12.011       0
   15991 MEMB 16   CHL1 H27A HAL3           0.09         1.008       0
   15992 MEMB 16   CHL1 H27B HAL3           0.09         1.008       0
   15993 MEMB 16   CHL1 H27C HAL3           0.09         1.008       0
   15994 MEMB 17   CHL1 C3   CRL1           0.14        12.011       0
   15995 MEMB 17   CHL1 H3   HGA1           0.09         1.008       0
   15996 MEMB 17   CHL1 O3   OHL           -0.66       15.9994       0
   15997 MEMB 17   CHL1 H3'  HOL            0.43         1.008       0
   15998 MEMB 17   CHL1 C4   CRL2          -0.18        12.011       0
   15999 MEMB 17   CHL1 H4A  HGA2           0.09         1.008       0
   16000 MEMB 17   CHL1 H4B  HGA2           0.09         1.008       0
   16001 MEMB 17   CHL1 C5   CEL1              0        12.011       0
   16002 MEMB 17   CHL1 C6   CEL1          -0.15        12.011       0
   16003 MEMB 17   CHL1 H6   HEL1           0.15         1.008       0
   16004 MEMB 17   CHL1 C7   CRL2          -0.18        12.011       0
   16005 MEMB 17   CHL1 H7A  HGA2           0.09         1.008       0
   16006 MEMB 17   CHL1 H7B  HGA2           0.09         1.008       0
   16007 MEMB 17   CHL1 C8   CRL1          -0.09        12.011       0
   16008 MEMB 17   CHL1 H8   HGA1           0.09         1.008       0
   16009 MEMB 17   CHL1 C14  CRL1          -0.09        12.011       0
   16010 MEMB 17   CHL1 H14  HGA1           0.09         1.008       0
   16011 MEMB 17   CHL1 C15  CRL2          -0.18        12.011       0
   16012 MEMB 17   CHL1 H15A HGA2           0.09         1.008       0
   16013 MEMB 17   CHL1 H15B HGA2           0.09         1.008       0
   16014 MEMB 17   CHL1 C16  CRL2          -0.18        12.011       0
   16015 MEMB 17   CHL1 H16A HGA2           0.09         1.008       0
   16016 MEMB 17   CHL1 H16B HGA2           0.09         1.008       0
   16017 MEMB 17   CHL1 C17  CRL1          -0.09        12.011       0
   16018 MEMB 17   CHL1 H17  HGA1           0.09         1.008       0
   16019 MEMB 17   CHL1 C13  CRL1              0        12.011       0
   16020 MEMB 17   CHL1 C18  CTL3          -0.27        12.011       0
   16021 MEMB 17   CHL1 H18A HAL3           0.09         1.008       0
   16022 MEMB 17   CHL1 H18B HAL3           0.09         1.008       0
   16023 MEMB 17   CHL1 H18C HAL3           0.09         1.008       0
   16024 MEMB 17   CHL1 C12  CRL2          -0.18        12.011       0
   16025 MEMB 17   CHL1 H12A HGA2           0.09         1.008       0
   16026 MEMB 17   CHL1 H12B HGA2           0.09         1.008       0
   16027 MEMB 17   CHL1 C11  CRL2          -0.18        12.011       0
   16028 MEMB 17   CHL1 H11A HGA2           0.09         1.008       0
   16029 MEMB 17   CHL1 H11B HGA2           0.09         1.008       0
   16030 MEMB 17   CHL1 C9   CRL1          -0.09        12.011       0
   16031 MEMB 17   CHL1 H9   HGA1           0.09         1.008       0
   16032 MEMB 17   CHL1 C10  CRL1              0        12.011       0
   16033 MEMB 17   CHL1 C19  CTL3          -0.27        12.011       0
   16034 MEMB 17   CHL1 H19A HAL3           0.09         1.008       0
   16035 MEMB 17   CHL1 H19B HAL3           0.09         1.008       0
   16036 MEMB 17   CHL1 H19C HAL3           0.09         1.008       0
   16037 MEMB 17   CHL1 C1   CRL2          -0.18        12.011       0
   16038 MEMB 17   CHL1 H1A  HGA2           0.09         1.008       0
   16039 MEMB 17   CHL1 H1B  HGA2           0.09         1.008       0
   16040 MEMB 17   CHL1 C2   CRL2          -0.18        12.011       0
   16041 MEMB 17   CHL1 H2A  HGA2           0.09         1.008       0
   16042 MEMB 17   CHL1 H2B  HGA2           0.09         1.008       0
   16043 MEMB 17   CHL1 C20  CTL1          -0.09        12.011       0
   16044 MEMB 17   CHL1 H20  HAL1           0.09         1.008       0
   16045 MEMB 17   CHL1 C21  CTL3          -0.27        12.011       0
   16046 MEMB 17   CHL1 H21A HAL3           0.09         1.008       0
   16047 MEMB 17   CHL1 H21B HAL3           0.09         1.008       0
   16048 MEMB 17   CHL1 H21C HAL3           0.09         1.008       0
   16049 MEMB 17   CHL1 C22  CTL2          -0.18        12.011       0
   16050 MEMB 17   CHL1 H22A HAL2           0.09         1.008       0
   16051 MEMB 17   CHL1 H22B HAL2           0.09         1.008       0
   16052 MEMB 17   CHL1 C23  CTL2          -0.18        12.011       0
   16053 MEMB 17   CHL1 H23A HAL2           0.09         1.008       0
   16054 MEMB 17   CHL1 H23B HAL2           0.09         1.008       0
   16055 MEMB 17   CHL1 C24  CTL2          -0.18        12.011       0
   16056 MEMB 17   CHL1 H24A HAL2           0.09         1.008       0
   16057 MEMB 17   CHL1 H24B HAL2           0.09         1.008       0
   16058 MEMB 17   CHL1 C25  CTL1          -0.09        12.011       0
   16059 MEMB 17   CHL1 H25  HAL1           0.09         1.008       0
   16060 MEMB 17   CHL1 C26  CTL3          -0.27        12.011       0
   16061 MEMB 17   CHL1 H26A HAL3           0.09         1.008       0
   16062 MEMB 17   CHL1 H26B HAL3           0.09         1.008       0
   16063 MEMB 17   CHL1 H26C HAL3           0.09         1.008       0
   16064 MEMB 17   CHL1 C27  CTL3          -0.27        12.011       0
   16065 MEMB 17   CHL1 H27A HAL3           0.09         1.008       0
   16066 MEMB 17   CHL1 H27B HAL3           0.09         1.008       0
   16067 MEMB 17   CHL1 H27C HAL3           0.09         1.008       0
   16068 MEMB 18   CHL1 C3   CRL1           0.14        12.011       0
   16069 MEMB 18   CHL1 H3   HGA1           0.09         1.008       0
   16070 MEMB 18   CHL1 O3   OHL           -0.66       15.9994       0
   16071 MEMB 18   CHL1 H3'  HOL            0.43         1.008       0
   16072 MEMB 18   CHL1 C4   CRL2          -0.18        12.011       0
   16073 MEMB 18   CHL1 H4A  HGA2           0.09         1.008       0
   16074 MEMB 18   CHL1 H4B  HGA2           0.09         1.008       0
   16075 MEMB 18   CHL1 C5   CEL1              0        12.011       0
   16076 MEMB 18   CHL1 C6   CEL1          -0.15        12.011       0
   16077 MEMB 18   CHL1 H6   HEL1           0.15         1.008       0
   16078 MEMB 18   CHL1 C7   CRL2          -0.18        12.011       0
   16079 MEMB 18   CHL1 H7A  HGA2           0.09         1.008       0
   16080 MEMB 18   CHL1 H7B  HGA2           0.09         1.008       0
   16081 MEMB 18   CHL1 C8   CRL1          -0.09        12.011       0
   16082 MEMB 18   CHL1 H8   HGA1           0.09         1.008       0
   16083 MEMB 18   CHL1 C14  CRL1          -0.09        12.011       0
   16084 MEMB 18   CHL1 H14  HGA1           0.09         1.008       0
   16085 MEMB 18   CHL1 C15  CRL2          -0.18        12.011       0
   16086 MEMB 18   CHL1 H15A HGA2           0.09         1.008       0
   16087 MEMB 18   CHL1 H15B HGA2           0.09         1.008       0
   16088 MEMB 18   CHL1 C16  CRL2          -0.18        12.011       0
   16089 MEMB 18   CHL1 H16A HGA2           0.09         1.008       0
   16090 MEMB 18   CHL1 H16B HGA2           0.09         1.008       0
   16091 MEMB 18   CHL1 C17  CRL1          -0.09        12.011       0
   16092 MEMB 18   CHL1 H17  HGA1           0.09         1.008       0
   16093 MEMB 18   CHL1 C13  CRL1              0        12.011       0
   16094 MEMB 18   CHL1 C18  CTL3          -0.27        12.011       0
   16095 MEMB 18   CHL1 H18A HAL3           0.09         1.008       0
   16096 MEMB 18   CHL1 H18B HAL3           0.09         1.008       0
   16097 MEMB 18   CHL1 H18C HAL3           0.09         1.008       0
   16098 MEMB 18   CHL1 C12  CRL2          -0.18        12.011       0
   16099 MEMB 18   CHL1 H12A HGA2           0.09         1.008       0
   16100 MEMB 18   CHL1 H12B HGA2           0.09         1.008       0
   16101 MEMB 18   CHL1 C11  CRL2          -0.18        12.011       0
   16102 MEMB 18   CHL1 H11A HGA2           0.09         1.008       0
   16103 MEMB 18   CHL1 H11B HGA2           0.09         1.008       0
   16104 MEMB 18   CHL1 C9   CRL1          -0.09        12.011       0
   16105 MEMB 18   CHL1 H9   HGA1           0.09         1.008       0
   16106 MEMB 18   CHL1 C10  CRL1              0        12.011       0
   16107 MEMB 18   CHL1 C19  CTL3          -0.27        12.011       0
   16108 MEMB 18   CHL1 H19A HAL3           0.09         1.008       0
   16109 MEMB 18   CHL1 H19B HAL3           0.09         1.008       0
   16110 MEMB 18   CHL1 H19C HAL3           0.09         1.008       0
   16111 MEMB 18   CHL1 C1   CRL2          -0.18        12.011       0
   16112 MEMB 18   CHL1 H1A  HGA2           0.09         1.008       0
   16113 MEMB 18   CHL1 H1B  HGA2           0.09         1.008       0
   16114 MEMB 18   CHL1 C2   CRL2          -0.18        12.011       0
   16115 MEMB 18   CHL1 H2A  HGA2           0.09         1.008       0
   16116 MEMB 18   CHL1 H2B  HGA2           0.09         1.008       0
   16117 MEMB 18   CHL1 C20  CTL1          -0.09        12.011       0
   16118 MEMB 18   CHL1 H20  HAL1           0.09         1.008       0
   16119 MEMB 18   CHL1 C21  CTL3          -0.27        12.011       0
   16120 MEMB 18   CHL1 H21A HAL3           0.09         1.008       0
   16121 MEMB 18   CHL1 H21B HAL3           0.09         1.008       0
   16122 MEMB 18   CHL1 H21C HAL3           0.09         1.008       0
   16123 MEMB 18   CHL1 C22  CTL2          -0.18        12.011       0
   16124 MEMB 18   CHL1 H22A HAL2           0.09         1.008       0
   16125 MEMB 18   CHL1 H22B HAL2           0.09         1.008       0
   16126 MEMB 18   CHL1 C23  CTL2          -0.18        12.011       0
   16127 MEMB 18   CHL1 H23A HAL2           0.09         1.008       0
   16128 MEMB 18   CHL1 H23B HAL2           0.09         1.008       0
   16129 MEMB 18   CHL1 C24  CTL2          -0.18        12.011       0
   16130 MEMB 18   CHL1 H24A HAL2           0.09         1.008       0
   16131 MEMB 18   CHL1 H24B HAL2           0.09         1.008       0
   16132 MEMB 18   CHL1 C25  CTL1          -0.09        12.011       0
   16133 MEMB 18   CHL1 H25  HAL1           0.09         1.008       0
   16134 MEMB 18   CHL1 C26  CTL3          -0.27        12.011       0
   16135 MEMB 18   CHL1 H26A HAL3           0.09         1.008       0
   16136 MEMB 18   CHL1 H26B HAL3           0.09         1.008       0
   16137 MEMB 18   CHL1 H26C HAL3           0.09         1.008       0
   16138 MEMB 18   CHL1 C27  CTL3          -0.27        12.011       0
   16139 MEMB 18   CHL1 H27A HAL3           0.09         1.008       0
   16140 MEMB 18   CHL1 H27B HAL3           0.09         1.008       0
   16141 MEMB 18   CHL1 H27C HAL3           0.09         1.008       0
   16142 MEMB 19   CHL1 C3   CRL1           0.14        12.011       0
   16143 MEMB 19   CHL1 H3   HGA1           0.09         1.008       0
   16144 MEMB 19   CHL1 O3   OHL           -0.66       15.9994       0
   16145 MEMB 19   CHL1 H3'  HOL            0.43         1.008       0
   16146 MEMB 19   CHL1 C4   CRL2          -0.18        12.011       0
   16147 MEMB 19   CHL1 H4A  HGA2           0.09         1.008       0
   16148 MEMB 19   CHL1 H4B  HGA2           0.09         1.008       0
   16149 MEMB 19   CHL1 C5   CEL1              0        12.011       0
   16150 MEMB 19   CHL1 C6   CEL1          -0.15        12.011       0
   16151 MEMB 19   CHL1 H6   HEL1           0.15         1.008       0
   16152 MEMB 19   CHL1 C7   CRL2          -0.18        12.011       0
   16153 MEMB 19   CHL1 H7A  HGA2           0.09         1.008       0
   16154 MEMB 19   CHL1 H7B  HGA2           0.09         1.008       0
   16155 MEMB 19   CHL1 C8   CRL1          -0.09        12.011       0
   16156 MEMB 19   CHL1 H8   HGA1           0.09         1.008       0
   16157 MEMB 19   CHL1 C14  CRL1          -0.09        12.011       0
   16158 MEMB 19   CHL1 H14  HGA1           0.09         1.008       0
   16159 MEMB 19   CHL1 C15  CRL2          -0.18        12.011       0
   16160 MEMB 19   CHL1 H15A HGA2           0.09         1.008       0
   16161 MEMB 19   CHL1 H15B HGA2           0.09         1.008       0
   16162 MEMB 19   CHL1 C16  CRL2          -0.18        12.011       0
   16163 MEMB 19   CHL1 H16A HGA2           0.09         1.008       0
   16164 MEMB 19   CHL1 H16B HGA2           0.09         1.008       0
   16165 MEMB 19   CHL1 C17  CRL1          -0.09        12.011       0
   16166 MEMB 19   CHL1 H17  HGA1           0.09         1.008       0
   16167 MEMB 19   CHL1 C13  CRL1              0        12.011       0
   16168 MEMB 19   CHL1 C18  CTL3          -0.27        12.011       0
   16169 MEMB 19   CHL1 H18A HAL3           0.09         1.008       0
   16170 MEMB 19   CHL1 H18B HAL3           0.09         1.008       0
   16171 MEMB 19   CHL1 H18C HAL3           0.09         1.008       0
   16172 MEMB 19   CHL1 C12  CRL2          -0.18        12.011       0
   16173 MEMB 19   CHL1 H12A HGA2           0.09         1.008       0
   16174 MEMB 19   CHL1 H12B HGA2           0.09         1.008       0
   16175 MEMB 19   CHL1 C11  CRL2          -0.18        12.011       0
   16176 MEMB 19   CHL1 H11A HGA2           0.09         1.008       0
   16177 MEMB 19   CHL1 H11B HGA2           0.09         1.008       0
   16178 MEMB 19   CHL1 C9   CRL1          -0.09        12.011       0
   16179 MEMB 19   CHL1 H9   HGA1           0.09         1.008       0
   16180 MEMB 19   CHL1 C10  CRL1              0        12.011       0
   16181 MEMB 19   CHL1 C19  CTL3          -0.27        12.011       0
   16182 MEMB 19   CHL1 H19A HAL3           0.09         1.008       0
   16183 MEMB 19   CHL1 H19B HAL3           0.09         1.008       0
   16184 MEMB 19   CHL1 H19C HAL3           0.09         1.008       0
   16185 MEMB 19   CHL1 C1   CRL2          -0.18        12.011       0
   16186 MEMB 19   CHL1 H1A  HGA2           0.09         1.008       0
   16187 MEMB 19   CHL1 H1B  HGA2           0.09         1.008       0
   16188 MEMB 19   CHL1 C2   CRL2          -0.18        12.011       0
   16189 MEMB 19   CHL1 H2A  HGA2           0.09         1.008       0
   16190 MEMB 19   CHL1 H2B  HGA2           0.09         1.008       0
   16191 MEMB 19   CHL1 C20  CTL1          -0.09        12.011       0
   16192 MEMB 19   CHL1 H20  HAL1           0.09         1.008       0
   16193 MEMB 19   CHL1 C21  CTL3          -0.27        12.011       0
   16194 MEMB 19   CHL1 H21A HAL3           0.09         1.008       0
   16195 MEMB 19   CHL1 H21B HAL3           0.09         1.008       0
   16196 MEMB 19   CHL1 H21C HAL3           0.09         1.008       0
   16197 MEMB 19   CHL1 C22  CTL2          -0.18        12.011       0
   16198 MEMB 19   CHL1 H22A HAL2           0.09         1.008       0
   16199 MEMB 19   CHL1 H22B HAL2           0.09         1.008       0
   16200 MEMB 19   CHL1 C23  CTL2          -0.18        12.011       0
   16201 MEMB 19   CHL1 H23A HAL2           0.09         1.008       0
   16202 MEMB 19   CHL1 H23B HAL2           0.09         1.008       0
   16203 MEMB 19   CHL1 C24  CTL2          -0.18        12.011       0
   16204 MEMB 19   CHL1 H24A HAL2           0.09         1.008       0
   16205 MEMB 19   CHL1 H24B HAL2           0.09         1.008       0
   16206 MEMB 19   CHL1 C25  CTL1          -0.09        12.011       0
   16207 MEMB 19   CHL1 H25  HAL1           0.09         1.008       0
   16208 MEMB 19   CHL1 C26  CTL3          -0.27        12.011       0
   16209 MEMB 19   CHL1 H26A HAL3           0.09         1.008       0
   16210 MEMB 19   CHL1 H26B HAL3           0.09         1.008       0
   16211 MEMB 19   CHL1 H26C HAL3           0.09         1.008       0
   16212 MEMB 19   CHL1 C27  CTL3          -0.27        12.011       0
   16213 MEMB 19   CHL1 H27A HAL3           0.09         1.008       0
   16214 MEMB 19   CHL1 H27B HAL3           0.09         1.008       0
   16215 MEMB 19   CHL1 H27C HAL3           0.09         1.008       0
   16216 MEMB 20   CHL1 C3   CRL1           0.14        12.011       0
   16217 MEMB 20   CHL1 H3   HGA1           0.09         1.008       0
   16218 MEMB 20   CHL1 O3   OHL           -0.66       15.9994       0
   16219 MEMB 20   CHL1 H3'  HOL            0.43         1.008       0
   16220 MEMB 20   CHL1 C4   CRL2          -0.18        12.011       0
   16221 MEMB 20   CHL1 H4A  HGA2           0.09         1.008       0
   16222 MEMB 20   CHL1 H4B  HGA2           0.09         1.008       0
   16223 MEMB 20   CHL1 C5   CEL1              0        12.011       0
   16224 MEMB 20   CHL1 C6   CEL1          -0.15        12.011       0
   16225 MEMB 20   CHL1 H6   HEL1           0.15         1.008       0
   16226 MEMB 20   CHL1 C7   CRL2          -0.18        12.011       0
   16227 MEMB 20   CHL1 H7A  HGA2           0.09         1.008       0
   16228 MEMB 20   CHL1 H7B  HGA2           0.09         1.008       0
   16229 MEMB 20   CHL1 C8   CRL1          -0.09        12.011       0
   16230 MEMB 20   CHL1 H8   HGA1           0.09         1.008       0
   16231 MEMB 20   CHL1 C14  CRL1          -0.09        12.011       0
   16232 MEMB 20   CHL1 H14  HGA1           0.09         1.008       0
   16233 MEMB 20   CHL1 C15  CRL2          -0.18        12.011       0
   16234 MEMB 20   CHL1 H15A HGA2           0.09         1.008       0
   16235 MEMB 20   CHL1 H15B HGA2           0.09         1.008       0
   16236 MEMB 20   CHL1 C16  CRL2          -0.18        12.011       0
   16237 MEMB 20   CHL1 H16A HGA2           0.09         1.008       0
   16238 MEMB 20   CHL1 H16B HGA2           0.09         1.008       0
   16239 MEMB 20   CHL1 C17  CRL1          -0.09        12.011       0
   16240 MEMB 20   CHL1 H17  HGA1           0.09         1.008       0
   16241 MEMB 20   CHL1 C13  CRL1              0        12.011       0
   16242 MEMB 20   CHL1 C18  CTL3          -0.27        12.011       0
   16243 MEMB 20   CHL1 H18A HAL3           0.09         1.008       0
   16244 MEMB 20   CHL1 H18B HAL3           0.09         1.008       0
   16245 MEMB 20   CHL1 H18C HAL3           0.09         1.008       0
   16246 MEMB 20   CHL1 C12  CRL2          -0.18        12.011       0
   16247 MEMB 20   CHL1 H12A HGA2           0.09         1.008       0
   16248 MEMB 20   CHL1 H12B HGA2           0.09         1.008       0
   16249 MEMB 20   CHL1 C11  CRL2          -0.18        12.011       0
   16250 MEMB 20   CHL1 H11A HGA2           0.09         1.008       0
   16251 MEMB 20   CHL1 H11B HGA2           0.09         1.008       0
   16252 MEMB 20   CHL1 C9   CRL1          -0.09        12.011       0
   16253 MEMB 20   CHL1 H9   HGA1           0.09         1.008       0
   16254 MEMB 20   CHL1 C10  CRL1              0        12.011       0
   16255 MEMB 20   CHL1 C19  CTL3          -0.27        12.011       0
   16256 MEMB 20   CHL1 H19A HAL3           0.09         1.008       0
   16257 MEMB 20   CHL1 H19B HAL3           0.09         1.008       0
   16258 MEMB 20   CHL1 H19C HAL3           0.09         1.008       0
   16259 MEMB 20   CHL1 C1   CRL2          -0.18        12.011       0
   16260 MEMB 20   CHL1 H1A  HGA2           0.09         1.008       0
   16261 MEMB 20   CHL1 H1B  HGA2           0.09         1.008       0
   16262 MEMB 20   CHL1 C2   CRL2          -0.18        12.011       0
   16263 MEMB 20   CHL1 H2A  HGA2           0.09         1.008       0
   16264 MEMB 20   CHL1 H2B  HGA2           0.09         1.008       0
   16265 MEMB 20   CHL1 C20  CTL1          -0.09        12.011       0
   16266 MEMB 20   CHL1 H20  HAL1           0.09         1.008       0
   16267 MEMB 20   CHL1 C21  CTL3          -0.27        12.011       0
   16268 MEMB 20   CHL1 H21A HAL3           0.09         1.008       0
   16269 MEMB 20   CHL1 H21B HAL3           0.09         1.008       0
   16270 MEMB 20   CHL1 H21C HAL3           0.09         1.008       0
   16271 MEMB 20   CHL1 C22  CTL2          -0.18        12.011       0
   16272 MEMB 20   CHL1 H22A HAL2           0.09         1.008       0
   16273 MEMB 20   CHL1 H22B HAL2           0.09         1.008       0
   16274 MEMB 20   CHL1 C23  CTL2          -0.18        12.011       0
   16275 MEMB 20   CHL1 H23A HAL2           0.09         1.008       0
   16276 MEMB 20   CHL1 H23B HAL2           0.09         1.008       0
   16277 MEMB 20   CHL1 C24  CTL2          -0.18        12.011       0
   16278 MEMB 20   CHL1 H24A HAL2           0.09         1.008       0
   16279 MEMB 20   CHL1 H24B HAL2           0.09         1.008       0
   16280 MEMB 20   CHL1 C25  CTL1          -0.09        12.011       0
   16281 MEMB 20   CHL1 H25  HAL1           0.09         1.008       0
   16282 MEMB 20   CHL1 C26  CTL3          -0.27        12.011       0
   16283 MEMB 20   CHL1 H26A HAL3           0.09         1.008       0
   16284 MEMB 20   CHL1 H26B HAL3           0.09         1.008       0
   16285 MEMB 20   CHL1 H26C HAL3           0.09         1.008       0
   16286 MEMB 20   CHL1 C27  CTL3          -0.27        12.011       0
   16287 MEMB 20   CHL1 H27A HAL3           0.09         1.008       0
   16288 MEMB 20   CHL1 H27B HAL3           0.09         1.008       0
   16289 MEMB 20   CHL1 H27C HAL3           0.09         1.008       0
   16290 MEMB 21   CHL1 C3   CRL1           0.14        12.011       0
   16291 MEMB 21   CHL1 H3   HGA1           0.09         1.008       0
   16292 MEMB 21   CHL1 O3   OHL           -0.66       15.9994       0
   16293 MEMB 21   CHL1 H3'  HOL            0.43         1.008       0
   16294 MEMB 21   CHL1 C4   CRL2          -0.18        12.011       0
   16295 MEMB 21   CHL1 H4A  HGA2           0.09         1.008       0
   16296 MEMB 21   CHL1 H4B  HGA2           0.09         1.008       0
   16297 MEMB 21   CHL1 C5   CEL1              0        12.011       0
   16298 MEMB 21   CHL1 C6   CEL1          -0.15        12.011       0
   16299 MEMB 21   CHL1 H6   HEL1           0.15         1.008       0
   16300 MEMB 21   CHL1 C7   CRL2          -0.18        12.011       0
   16301 MEMB 21   CHL1 H7A  HGA2           0.09         1.008       0
   16302 MEMB 21   CHL1 H7B  HGA2           0.09         1.008       0
   16303 MEMB 21   CHL1 C8   CRL1          -0.09        12.011       0
   16304 MEMB 21   CHL1 H8   HGA1           0.09         1.008       0
   16305 MEMB 21   CHL1 C14  CRL1          -0.09        12.011       0
   16306 MEMB 21   CHL1 H14  HGA1           0.09         1.008       0
   16307 MEMB 21   CHL1 C15  CRL2          -0.18        12.011       0
   16308 MEMB 21   CHL1 H15A HGA2           0.09         1.008       0
   16309 MEMB 21   CHL1 H15B HGA2           0.09         1.008       0
   16310 MEMB 21   CHL1 C16  CRL2          -0.18        12.011       0
   16311 MEMB 21   CHL1 H16A HGA2           0.09         1.008       0
   16312 MEMB 21   CHL1 H16B HGA2           0.09         1.008       0
   16313 MEMB 21   CHL1 C17  CRL1          -0.09        12.011       0
   16314 MEMB 21   CHL1 H17  HGA1           0.09         1.008       0
   16315 MEMB 21   CHL1 C13  CRL1              0        12.011       0
   16316 MEMB 21   CHL1 C18  CTL3          -0.27        12.011       0
   16317 MEMB 21   CHL1 H18A HAL3           0.09         1.008       0
   16318 MEMB 21   CHL1 H18B HAL3           0.09         1.008       0
   16319 MEMB 21   CHL1 H18C HAL3           0.09         1.008       0
   16320 MEMB 21   CHL1 C12  CRL2          -0.18        12.011       0
   16321 MEMB 21   CHL1 H12A HGA2           0.09         1.008       0
   16322 MEMB 21   CHL1 H12B HGA2           0.09         1.008       0
   16323 MEMB 21   CHL1 C11  CRL2          -0.18        12.011       0
   16324 MEMB 21   CHL1 H11A HGA2           0.09         1.008       0
   16325 MEMB 21   CHL1 H11B HGA2           0.09         1.008       0
   16326 MEMB 21   CHL1 C9   CRL1          -0.09        12.011       0
   16327 MEMB 21   CHL1 H9   HGA1           0.09         1.008       0
   16328 MEMB 21   CHL1 C10  CRL1              0        12.011       0
   16329 MEMB 21   CHL1 C19  CTL3          -0.27        12.011       0
   16330 MEMB 21   CHL1 H19A HAL3           0.09         1.008       0
   16331 MEMB 21   CHL1 H19B HAL3           0.09         1.008       0
   16332 MEMB 21   CHL1 H19C HAL3           0.09         1.008       0
   16333 MEMB 21   CHL1 C1   CRL2          -0.18        12.011       0
   16334 MEMB 21   CHL1 H1A  HGA2           0.09         1.008       0
   16335 MEMB 21   CHL1 H1B  HGA2           0.09         1.008       0
   16336 MEMB 21   CHL1 C2   CRL2          -0.18        12.011       0
   16337 MEMB 21   CHL1 H2A  HGA2           0.09         1.008       0
   16338 MEMB 21   CHL1 H2B  HGA2           0.09         1.008       0
   16339 MEMB 21   CHL1 C20  CTL1          -0.09        12.011       0
   16340 MEMB 21   CHL1 H20  HAL1           0.09         1.008       0
   16341 MEMB 21   CHL1 C21  CTL3          -0.27        12.011       0
   16342 MEMB 21   CHL1 H21A HAL3           0.09         1.008       0
   16343 MEMB 21   CHL1 H21B HAL3           0.09         1.008       0
   16344 MEMB 21   CHL1 H21C HAL3           0.09         1.008       0
   16345 MEMB 21   CHL1 C22  CTL2          -0.18        12.011       0
   16346 MEMB 21   CHL1 H22A HAL2           0.09         1.008       0
   16347 MEMB 21   CHL1 H22B HAL2           0.09         1.008       0
   16348 MEMB 21   CHL1 C23  CTL2          -0.18        12.011       0
   16349 MEMB 21   CHL1 H23A HAL2           0.09         1.008       0
   16350 MEMB 21   CHL1 H23B HAL2           0.09         1.008       0
   16351 MEMB 21   CHL1 C24  CTL2          -0.18        12.011       0
   16352 MEMB 21   CHL1 H24A HAL2           0.09         1.008       0
   16353 MEMB 21   CHL1 H24B HAL2           0.09         1.008       0
   16354 MEMB 21   CHL1 C25  CTL1          -0.09        12.011       0
   16355 MEMB 21   CHL1 H25  HAL1           0.09         1.008       0
   16356 MEMB 21   CHL1 C26  CTL3          -0.27        12.011       0
   16357 MEMB 21   CHL1 H26A HAL3           0.09         1.008       0
   16358 MEMB 21   CHL1 H26B HAL3           0.09         1.008       0
   16359 MEMB 21   CHL1 H26C HAL3           0.09         1.008       0
   16360 MEMB 21   CHL1 C27  CTL3          -0.27        12.011       0
   16361 MEMB 21   CHL1 H27A HAL3           0.09         1.008       0
   16362 MEMB 21   CHL1 H27B HAL3           0.09         1.008       0
   16363 MEMB 21   CHL1 H27C HAL3           0.09         1.008       0
   16364 MEMB 22   PSM  N    NTL            -0.6        14.007       0
   16365 MEMB 22   PSM  C15  CTL5          -0.35        12.011       0
   16366 MEMB 22   PSM  H15A HL             0.25         1.008       0
   16367 MEMB 22   PSM  H15B HL             0.25         1.008       0
   16368 MEMB 22   PSM  H15C HL             0.25         1.008       0
   16369 MEMB 22   PSM  C14  CTL5          -0.35        12.011       0
   16370 MEMB 22   PSM  H14A HL             0.25         1.008       0
   16371 MEMB 22   PSM  H14B HL             0.25         1.008       0
   16372 MEMB 22   PSM  H14C HL             0.25         1.008       0
   16373 MEMB 22   PSM  C13  CTL5          -0.35        12.011       0
   16374 MEMB 22   PSM  H13A HL             0.25         1.008       0
   16375 MEMB 22   PSM  H13B HL             0.25         1.008       0
   16376 MEMB 22   PSM  H13C HL             0.25         1.008       0
   16377 MEMB 22   PSM  C12  CTL2           -0.1        12.011       0
   16378 MEMB 22   PSM  H12A HL             0.25         1.008       0
   16379 MEMB 22   PSM  H12B HL             0.25         1.008       0
   16380 MEMB 22   PSM  C11  CTL2          -0.08        12.011       0
   16381 MEMB 22   PSM  H11A HAL2           0.09         1.008       0
   16382 MEMB 22   PSM  H11B HAL2           0.09         1.008       0
   16383 MEMB 22   PSM  P    PL              1.5        30.974       0
   16384 MEMB 22   PSM  O13  O2L           -0.78       15.9994       0
   16385 MEMB 22   PSM  O14  O2L           -0.78       15.9994       0
   16386 MEMB 22   PSM  O11  OSLP          -0.57       15.9994       0
   16387 MEMB 22   PSM  O12  OSLP          -0.57       15.9994       0
   16388 MEMB 22   PSM  C1S  CTL2          -0.08        12.011       0
   16389 MEMB 22   PSM  H1S  HAL2           0.09         1.008       0
   16390 MEMB 22   PSM  H1T  HAL2           0.09         1.008       0
   16391 MEMB 22   PSM  NF   NHL            -0.7        14.007       0
   16392 MEMB 22   PSM  HNF  H              0.35         1.008       0
   16393 MEMB 22   PSM  C2S  CTL1            0.3        12.011       0
   16394 MEMB 22   PSM  H2S  HAL1           0.05         1.008       0
   16395 MEMB 22   PSM  C3S  CTO1            0.5        12.011       0
   16396 MEMB 22   PSM  H3S  HAL1          -0.11         1.008       0
   16397 MEMB 22   PSM  O3   OHL           -0.69       15.9994       0
   16398 MEMB 22   PSM  HO3  HOL             0.3         1.008       0
   16399 MEMB 22   PSM  C4S  CEL3          -0.15        12.011       0
   16400 MEMB 22   PSM  H4S  HEL1           0.15         1.008       0
   16401 MEMB 22   PSM  C5S  CEL3          -0.15        12.011       0
   16402 MEMB 22   PSM  H5S  HEL1           0.15         1.008       0
   16403 MEMB 22   PSM  C6S  CTL2          -0.18        12.011       0
   16404 MEMB 22   PSM  H6S  HAL2           0.09         1.008       0
   16405 MEMB 22   PSM  H6T  HAL2           0.09         1.008       0
   16406 MEMB 22   PSM  C7S  CTL2          -0.18        12.011       0
   16407 MEMB 22   PSM  H7S  HAL2           0.09         1.008       0
   16408 MEMB 22   PSM  H7T  HAL2           0.09         1.008       0
   16409 MEMB 22   PSM  C8S  CTL2          -0.18        12.011       0
   16410 MEMB 22   PSM  H8S  HAL2           0.09         1.008       0
   16411 MEMB 22   PSM  H8T  HAL2           0.09         1.008       0
   16412 MEMB 22   PSM  C9S  CTL2          -0.18        12.011       0
   16413 MEMB 22   PSM  H9S  HAL2           0.09         1.008       0
   16414 MEMB 22   PSM  H9T  HAL2           0.09         1.008       0
   16415 MEMB 22   PSM  C10S CTL2          -0.18        12.011       0
   16416 MEMB 22   PSM  H10S HAL2           0.09         1.008       0
   16417 MEMB 22   PSM  H10T HAL2           0.09         1.008       0
   16418 MEMB 22   PSM  C11S CTL2          -0.18        12.011       0
   16419 MEMB 22   PSM  H11S HAL2           0.09         1.008       0
   16420 MEMB 22   PSM  H11T HAL2           0.09         1.008       0
   16421 MEMB 22   PSM  C12S CTL2          -0.18        12.011       0
   16422 MEMB 22   PSM  H12S HAL2           0.09         1.008       0
   16423 MEMB 22   PSM  H12T HAL2           0.09         1.008       0
   16424 MEMB 22   PSM  C13S CTL2          -0.18        12.011       0
   16425 MEMB 22   PSM  H13S HAL2           0.09         1.008       0
   16426 MEMB 22   PSM  H13T HAL2           0.09         1.008       0
   16427 MEMB 22   PSM  C14S CTL2          -0.18        12.011       0
   16428 MEMB 22   PSM  H14S HAL2           0.09         1.008       0
   16429 MEMB 22   PSM  H14T HAL2           0.09         1.008       0
   16430 MEMB 22   PSM  C15S CTL2          -0.18        12.011       0
   16431 MEMB 22   PSM  H15S HAL2           0.09         1.008       0
   16432 MEMB 22   PSM  H15T HAL2           0.09         1.008       0
   16433 MEMB 22   PSM  C16S CTL2          -0.18        12.011       0
   16434 MEMB 22   PSM  H16S HAL2           0.09         1.008       0
   16435 MEMB 22   PSM  H16T HAL2           0.09         1.008       0
   16436 MEMB 22   PSM  C17S CTL2          -0.18        12.011       0
   16437 MEMB 22   PSM  H17S HAL2           0.09         1.008       0
   16438 MEMB 22   PSM  H17T HAL2           0.09         1.008       0
   16439 MEMB 22   PSM  C18S CTL3          -0.27        12.011       0
   16440 MEMB 22   PSM  H18S HAL3           0.09         1.008       0
   16441 MEMB 22   PSM  H18T HAL3           0.09         1.008       0
   16442 MEMB 22   PSM  H18U HAL3           0.09         1.008       0
   16443 MEMB 22   PSM  C1F  C              0.55        12.011       0
   16444 MEMB 22   PSM  OF   O              -0.6        15.999       0
   16445 MEMB 22   PSM  C2F  CTL2          -0.07        12.011       0
   16446 MEMB 22   PSM  H2F  HAL2           0.06         1.008       0
   16447 MEMB 22   PSM  H2G  HAL2           0.06         1.008       0
   16448 MEMB 22   PSM  C3F  CTL2          -0.18        12.011       0
   16449 MEMB 22   PSM  H3F  HAL2           0.09         1.008       0
   16450 MEMB 22   PSM  H3G  HAL2           0.09         1.008       0
   16451 MEMB 22   PSM  C4F  CTL2          -0.18        12.011       0
   16452 MEMB 22   PSM  H4F  HAL2           0.09         1.008       0
   16453 MEMB 22   PSM  H4G  HAL2           0.09         1.008       0
   16454 MEMB 22   PSM  C5F  CTL2          -0.18        12.011       0
   16455 MEMB 22   PSM  H5F  HAL2           0.09         1.008       0
   16456 MEMB 22   PSM  H5G  HAL2           0.09         1.008       0
   16457 MEMB 22   PSM  C6F  CTL2          -0.18        12.011       0
   16458 MEMB 22   PSM  H6F  HAL2           0.09         1.008       0
   16459 MEMB 22   PSM  H6G  HAL2           0.09         1.008       0
   16460 MEMB 22   PSM  C7F  CTL2          -0.18        12.011       0
   16461 MEMB 22   PSM  H7F  HAL2           0.09         1.008       0
   16462 MEMB 22   PSM  H7G  HAL2           0.09         1.008       0
   16463 MEMB 22   PSM  C8F  CTL2          -0.18        12.011       0
   16464 MEMB 22   PSM  H8F  HAL2           0.09         1.008       0
   16465 MEMB 22   PSM  H8G  HAL2           0.09         1.008       0
   16466 MEMB 22   PSM  C9F  CTL2          -0.18        12.011       0
   16467 MEMB 22   PSM  H9F  HAL2           0.09         1.008       0
   16468 MEMB 22   PSM  H9G  HAL2           0.09         1.008       0
   16469 MEMB 22   PSM  C10F CTL2          -0.18        12.011       0
   16470 MEMB 22   PSM  H10F HAL2           0.09         1.008       0
   16471 MEMB 22   PSM  H10G HAL2           0.09         1.008       0
   16472 MEMB 22   PSM  C11F CTL2          -0.18        12.011       0
   16473 MEMB 22   PSM  H11F HAL2           0.09         1.008       0
   16474 MEMB 22   PSM  H11G HAL2           0.09         1.008       0
   16475 MEMB 22   PSM  C12F CTL2          -0.18        12.011       0
   16476 MEMB 22   PSM  H12F HAL2           0.09         1.008       0
   16477 MEMB 22   PSM  H12G HAL2           0.09         1.008       0
   16478 MEMB 22   PSM  C13F CTL2          -0.18        12.011       0
   16479 MEMB 22   PSM  H13F HAL2           0.09         1.008       0
   16480 MEMB 22   PSM  H13G HAL2           0.09         1.008       0
   16481 MEMB 22   PSM  C14F CTL2          -0.18        12.011       0
   16482 MEMB 22   PSM  H14F HAL2           0.09         1.008       0
   16483 MEMB 22   PSM  H14G HAL2           0.09         1.008       0
   16484 MEMB 22   PSM  C15F CTL2          -0.18        12.011       0
   16485 MEMB 22   PSM  H15F HAL2           0.09         1.008       0
   16486 MEMB 22   PSM  H15G HAL2           0.09         1.008       0
   16487 MEMB 22   PSM  C16F CTL3          -0.27        12.011       0
   16488 MEMB 22   PSM  H16F HAL3           0.09         1.008       0
   16489 MEMB 22   PSM  H16G HAL3           0.09         1.008       0
   16490 MEMB 22   PSM  H16H HAL3           0.09         1.008       0
   16491 MEMB 23   POPC N    NTL            -0.6        14.007       0
   16492 MEMB 23   POPC C12  CTL2           -0.1        12.011       0
   16493 MEMB 23   POPC H12A HL             0.25         1.008       0
   16494 MEMB 23   POPC H12B HL             0.25         1.008       0
   16495 MEMB 23   POPC C13  CTL5          -0.35        12.011       0
   16496 MEMB 23   POPC H13A HL             0.25         1.008       0
   16497 MEMB 23   POPC H13B HL             0.25         1.008       0
   16498 MEMB 23   POPC H13C HL             0.25         1.008       0
   16499 MEMB 23   POPC C14  CTL5          -0.35        12.011       0
   16500 MEMB 23   POPC H14A HL             0.25         1.008       0
   16501 MEMB 23   POPC H14B HL             0.25         1.008       0
   16502 MEMB 23   POPC H14C HL             0.25         1.008       0
   16503 MEMB 23   POPC C15  CTL5          -0.35        12.011       0
   16504 MEMB 23   POPC H15A HL             0.25         1.008       0
   16505 MEMB 23   POPC H15B HL             0.25         1.008       0
   16506 MEMB 23   POPC H15C HL             0.25         1.008       0
   16507 MEMB 23   POPC C11  CTL2          -0.08        12.011       0
   16508 MEMB 23   POPC H11A HAL2           0.09         1.008       0
   16509 MEMB 23   POPC H11B HAL2           0.09         1.008       0
   16510 MEMB 23   POPC P    PL              1.5        30.974       0
   16511 MEMB 23   POPC O13  O2L           -0.78       15.9994       0
   16512 MEMB 23   POPC O14  O2L           -0.78       15.9994       0
   16513 MEMB 23   POPC O12  OSLP          -0.57       15.9994       0
   16514 MEMB 23   POPC O11  OSLP          -0.57       15.9994       0
   16515 MEMB 23   POPC C1   CTL2          -0.08        12.011       0
   16516 MEMB 23   POPC HA   HAL2           0.09         1.008       0
   16517 MEMB 23   POPC HB   HAL2           0.09         1.008       0
   16518 MEMB 23   POPC C2   CTL1           0.17        12.011       0
   16519 MEMB 23   POPC HS   HAL1           0.09         1.008       0
   16520 MEMB 23   POPC O21  OSL           -0.49       15.9994       0
   16521 MEMB 23   POPC C21  CL              0.9        12.011       0
   16522 MEMB 23   POPC O22  OBL           -0.63       15.9994       0
   16523 MEMB 23   POPC C22  CTL2          -0.22        12.011       0
   16524 MEMB 23   POPC H2R  HAL2           0.09         1.008       0
   16525 MEMB 23   POPC H2S  HAL2           0.09         1.008       0
   16526 MEMB 23   POPC C3   CTL2           0.08        12.011       0
   16527 MEMB 23   POPC HX   HAL2           0.09         1.008       0
   16528 MEMB 23   POPC HY   HAL2           0.09         1.008       0
   16529 MEMB 23   POPC O31  OSL           -0.49       15.9994       0
   16530 MEMB 23   POPC C31  CL              0.9        12.011       0
   16531 MEMB 23   POPC O32  OBL           -0.63       15.9994       0
   16532 MEMB 23   POPC C32  CTL2          -0.22        12.011       0
   16533 MEMB 23   POPC H2X  HAL2           0.09         1.008       0
   16534 MEMB 23   POPC H2Y  HAL2           0.09         1.008       0
   16535 MEMB 23   POPC C23  CTL2          -0.18        12.011       0
   16536 MEMB 23   POPC H3R  HAL2           0.09         1.008       0
   16537 MEMB 23   POPC H3S  HAL2           0.09         1.008       0
   16538 MEMB 23   POPC C24  CTL2          -0.18        12.011       0
   16539 MEMB 23   POPC H4R  HAL2           0.09         1.008       0
   16540 MEMB 23   POPC H4S  HAL2           0.09         1.008       0
   16541 MEMB 23   POPC C25  CTL2          -0.18        12.011       0
   16542 MEMB 23   POPC H5R  HAL2           0.09         1.008       0
   16543 MEMB 23   POPC H5S  HAL2           0.09         1.008       0
   16544 MEMB 23   POPC C26  CTL2          -0.18        12.011       0
   16545 MEMB 23   POPC H6R  HAL2           0.09         1.008       0
   16546 MEMB 23   POPC H6S  HAL2           0.09         1.008       0
   16547 MEMB 23   POPC C27  CTL2          -0.18        12.011       0
   16548 MEMB 23   POPC H7R  HAL2           0.09         1.008       0
   16549 MEMB 23   POPC H7S  HAL2           0.09         1.008       0
   16550 MEMB 23   POPC C28  CTL2          -0.18        12.011       0
   16551 MEMB 23   POPC H8R  HAL2           0.09         1.008       0
   16552 MEMB 23   POPC H8S  HAL2           0.09         1.008       0
   16553 MEMB 23   POPC C29  CEL1          -0.15        12.011       0
   16554 MEMB 23   POPC H91  HEL1           0.15         1.008       0
   16555 MEMB 23   POPC C210 CEL1          -0.15        12.011       0
   16556 MEMB 23   POPC H101 HEL1           0.15         1.008       0
   16557 MEMB 23   POPC C211 CTL2          -0.18        12.011       0
   16558 MEMB 23   POPC H11R HAL2           0.09         1.008       0
   16559 MEMB 23   POPC H11S HAL2           0.09         1.008       0
   16560 MEMB 23   POPC C212 CTL2          -0.18        12.011       0
   16561 MEMB 23   POPC H12R HAL2           0.09         1.008       0
   16562 MEMB 23   POPC H12S HAL2           0.09         1.008       0
   16563 MEMB 23   POPC C213 CTL2          -0.18        12.011       0
   16564 MEMB 23   POPC H13R HAL2           0.09         1.008       0
   16565 MEMB 23   POPC H13S HAL2           0.09         1.008       0
   16566 MEMB 23   POPC C214 CTL2          -0.18        12.011       0
   16567 MEMB 23   POPC H14R HAL2           0.09         1.008       0
   16568 MEMB 23   POPC H14S HAL2           0.09         1.008       0
   16569 MEMB 23   POPC C215 CTL2          -0.18        12.011       0
   16570 MEMB 23   POPC H15R HAL2           0.09         1.008       0
   16571 MEMB 23   POPC H15S HAL2           0.09         1.008       0
   16572 MEMB 23   POPC C216 CTL2          -0.18        12.011       0
   16573 MEMB 23   POPC H16R HAL2           0.09         1.008       0
   16574 MEMB 23   POPC H16S HAL2           0.09         1.008       0
   16575 MEMB 23   POPC C217 CTL2          -0.18        12.011       0
   16576 MEMB 23   POPC H17R HAL2           0.09         1.008       0
   16577 MEMB 23   POPC H17S HAL2           0.09         1.008       0
   16578 MEMB 23   POPC C218 CTL3          -0.27        12.011       0
   16579 MEMB 23   POPC H18R HAL3           0.09         1.008       0
   16580 MEMB 23   POPC H18S HAL3           0.09         1.008       0
   16581 MEMB 23   POPC H18T HAL3           0.09         1.008       0
   16582 MEMB 23   POPC C33  CTL2          -0.18        12.011       0
   16583 MEMB 23   POPC H3X  HAL2           0.09         1.008       0
   16584 MEMB 23   POPC H3Y  HAL2           0.09         1.008       0
   16585 MEMB 23   POPC C34  CTL2          -0.18        12.011       0
   16586 MEMB 23   POPC H4X  HAL2           0.09         1.008       0
   16587 MEMB 23   POPC H4Y  HAL2           0.09         1.008       0
   16588 MEMB 23   POPC C35  CTL2          -0.18        12.011       0
   16589 MEMB 23   POPC H5X  HAL2           0.09         1.008       0
   16590 MEMB 23   POPC H5Y  HAL2           0.09         1.008       0
   16591 MEMB 23   POPC C36  CTL2          -0.18        12.011       0
   16592 MEMB 23   POPC H6X  HAL2           0.09         1.008       0
   16593 MEMB 23   POPC H6Y  HAL2           0.09         1.008       0
   16594 MEMB 23   POPC C37  CTL2          -0.18        12.011       0
   16595 MEMB 23   POPC H7X  HAL2           0.09         1.008       0
   16596 MEMB 23   POPC H7Y  HAL2           0.09         1.008       0
   16597 MEMB 23   POPC C38  CTL2          -0.18        12.011       0
   16598 MEMB 23   POPC H8X  HAL2           0.09         1.008       0
   16599 MEMB 23   POPC H8Y  HAL2           0.09         1.008       0
   16600 MEMB 23   POPC C39  CTL2          -0.18        12.011       0
   16601 MEMB 23   POPC H9X  HAL2           0.09         1.008       0
   16602 MEMB 23   POPC H9Y  HAL2           0.09         1.008       0
   16603 MEMB 23   POPC C310 CTL2          -0.18        12.011       0
   16604 MEMB 23   POPC H10X HAL2           0.09         1.008       0
   16605 MEMB 23   POPC H10Y HAL2           0.09         1.008       0
   16606 MEMB 23   POPC C311 CTL2          -0.18        12.011       0
   16607 MEMB 23   POPC H11X HAL2           0.09         1.008       0
   16608 MEMB 23   POPC H11Y HAL2           0.09         1.008       0
   16609 MEMB 23   POPC C312 CTL2          -0.18        12.011       0
   16610 MEMB 23   POPC H12X HAL2           0.09         1.008       0
   16611 MEMB 23   POPC H12Y HAL2           0.09         1.008       0
   16612 MEMB 23   POPC C313 CTL2          -0.18        12.011       0
   16613 MEMB 23   POPC H13X HAL2           0.09         1.008       0
   16614 MEMB 23   POPC H13Y HAL2           0.09         1.008       0
   16615 MEMB 23   POPC C314 CTL2          -0.18        12.011       0
   16616 MEMB 23   POPC H14X HAL2           0.09         1.008       0
   16617 MEMB 23   POPC H14Y HAL2           0.09         1.008       0
   16618 MEMB 23   POPC C315 CTL2          -0.18        12.011       0
   16619 MEMB 23   POPC H15X HAL2           0.09         1.008       0
   16620 MEMB 23   POPC H15Y HAL2           0.09         1.008       0
   16621 MEMB 23   POPC C316 CTL3          -0.27        12.011       0
   16622 MEMB 23   POPC H16X HAL3           0.09         1.008       0
   16623 MEMB 23   POPC H16Y HAL3           0.09         1.008       0
   16624 MEMB 23   POPC H16Z HAL3           0.09         1.008       0
   16625 MEMB 24   POPS N    NH3L           -0.3        14.007       0
   16626 MEMB 24   POPS HN1  HCL            0.33         1.008       0
   16627 MEMB 24   POPS HN2  HCL            0.33         1.008       0
   16628 MEMB 24   POPS HN3  HCL            0.33         1.008       0
   16629 MEMB 24   POPS C12  CTL1           0.21        12.011       0
   16630 MEMB 24   POPS H12A HBL             0.1         1.008       0
   16631 MEMB 24   POPS C13  CCL            0.34        12.011       0
   16632 MEMB 24   POPS O13A OCL           -0.67       15.9994       0
   16633 MEMB 24   POPS O13B OCL           -0.67       15.9994       0
   16634 MEMB 24   POPS C11  CTL2          -0.08        12.011       0
   16635 MEMB 24   POPS H11A HAL2           0.09         1.008       0
   16636 MEMB 24   POPS H11B HAL2           0.09         1.008       0
   16637 MEMB 24   POPS P    PL              1.5        30.974       0
   16638 MEMB 24   POPS O13  O2L           -0.78       15.9994       0
   16639 MEMB 24   POPS O14  O2L           -0.78       15.9994       0
   16640 MEMB 24   POPS O12  OSLP          -0.57       15.9994       0
   16641 MEMB 24   POPS O11  OSLP          -0.57       15.9994       0
   16642 MEMB 24   POPS C1   CTL2          -0.08        12.011       0
   16643 MEMB 24   POPS HA   HAL2           0.09         1.008       0
   16644 MEMB 24   POPS HB   HAL2           0.09         1.008       0
   16645 MEMB 24   POPS C2   CTL1           0.17        12.011       0
   16646 MEMB 24   POPS HS   HAL1           0.09         1.008       0
   16647 MEMB 24   POPS O21  OSL           -0.49       15.9994       0
   16648 MEMB 24   POPS C21  CL              0.9        12.011       0
   16649 MEMB 24   POPS O22  OBL           -0.63       15.9994       0
   16650 MEMB 24   POPS C22  CTL2          -0.22        12.011       0
   16651 MEMB 24   POPS H2R  HAL2           0.09         1.008       0
   16652 MEMB 24   POPS H2S  HAL2           0.09         1.008       0
   16653 MEMB 24   POPS C3   CTL2           0.08        12.011       0
   16654 MEMB 24   POPS HX   HAL2           0.09         1.008       0
   16655 MEMB 24   POPS HY   HAL2           0.09         1.008       0
   16656 MEMB 24   POPS O31  OSL           -0.49       15.9994       0
   16657 MEMB 24   POPS C31  CL              0.9        12.011       0
   16658 MEMB 24   POPS O32  OBL           -0.63       15.9994       0
   16659 MEMB 24   POPS C32  CTL2          -0.22        12.011       0
   16660 MEMB 24   POPS H2X  HAL2           0.09         1.008       0
   16661 MEMB 24   POPS H2Y  HAL2           0.09         1.008       0
   16662 MEMB 24   POPS C23  CTL2          -0.18        12.011       0
   16663 MEMB 24   POPS H3R  HAL2           0.09         1.008       0
   16664 MEMB 24   POPS H3S  HAL2           0.09         1.008       0
   16665 MEMB 24   POPS C24  CTL2          -0.18        12.011       0
   16666 MEMB 24   POPS H4R  HAL2           0.09         1.008       0
   16667 MEMB 24   POPS H4S  HAL2           0.09         1.008       0
   16668 MEMB 24   POPS C25  CTL2          -0.18        12.011       0
   16669 MEMB 24   POPS H5R  HAL2           0.09         1.008       0
   16670 MEMB 24   POPS H5S  HAL2           0.09         1.008       0
   16671 MEMB 24   POPS C26  CTL2          -0.18        12.011       0
   16672 MEMB 24   POPS H6R  HAL2           0.09         1.008       0
   16673 MEMB 24   POPS H6S  HAL2           0.09         1.008       0
   16674 MEMB 24   POPS C27  CTL2          -0.18        12.011       0
   16675 MEMB 24   POPS H7R  HAL2           0.09         1.008       0
   16676 MEMB 24   POPS H7S  HAL2           0.09         1.008       0
   16677 MEMB 24   POPS C28  CTL2          -0.18        12.011       0
   16678 MEMB 24   POPS H8R  HAL2           0.09         1.008       0
   16679 MEMB 24   POPS H8S  HAL2           0.09         1.008       0
   16680 MEMB 24   POPS C29  CEL1          -0.15        12.011       0
   16681 MEMB 24   POPS H91  HEL1           0.15         1.008       0
   16682 MEMB 24   POPS C210 CEL1          -0.15        12.011       0
   16683 MEMB 24   POPS H101 HEL1           0.15         1.008       0
   16684 MEMB 24   POPS C211 CTL2          -0.18        12.011       0
   16685 MEMB 24   POPS H11R HAL2           0.09         1.008       0
   16686 MEMB 24   POPS H11S HAL2           0.09         1.008       0
   16687 MEMB 24   POPS C212 CTL2          -0.18        12.011       0
   16688 MEMB 24   POPS H12R HAL2           0.09         1.008       0
   16689 MEMB 24   POPS H12S HAL2           0.09         1.008       0
   16690 MEMB 24   POPS C213 CTL2          -0.18        12.011       0
   16691 MEMB 24   POPS H13R HAL2           0.09         1.008       0
   16692 MEMB 24   POPS H13S HAL2           0.09         1.008       0
   16693 MEMB 24   POPS C214 CTL2          -0.18        12.011       0
   16694 MEMB 24   POPS H14R HAL2           0.09         1.008       0
   16695 MEMB 24   POPS H14S HAL2           0.09         1.008       0
   16696 MEMB 24   POPS C215 CTL2          -0.18        12.011       0
   16697 MEMB 24   POPS H15R HAL2           0.09         1.008       0
   16698 MEMB 24   POPS H15S HAL2           0.09         1.008       0
   16699 MEMB 24   POPS C216 CTL2          -0.18        12.011       0
   16700 MEMB 24   POPS H16R HAL2           0.09         1.008       0
   16701 MEMB 24   POPS H16S HAL2           0.09         1.008       0
   16702 MEMB 24   POPS C217 CTL2          -0.18        12.011       0
   16703 MEMB 24   POPS H17R HAL2           0.09         1.008       0
   16704 MEMB 24   POPS H17S HAL2           0.09         1.008       0
   16705 MEMB 24   POPS C218 CTL3          -0.27        12.011       0
   16706 MEMB 24   POPS H18R HAL3           0.09         1.008       0
   16707 MEMB 24   POPS H18S HAL3           0.09         1.008       0
   16708 MEMB 24   POPS H18T HAL3           0.09         1.008       0
   16709 MEMB 24   POPS C33  CTL2          -0.18        12.011       0
   16710 MEMB 24   POPS H3X  HAL2           0.09         1.008       0
   16711 MEMB 24   POPS H3Y  HAL2           0.09         1.008       0
   16712 MEMB 24   POPS C34  CTL2          -0.18        12.011       0
   16713 MEMB 24   POPS H4X  HAL2           0.09         1.008       0
   16714 MEMB 24   POPS H4Y  HAL2           0.09         1.008       0
   16715 MEMB 24   POPS C35  CTL2          -0.18        12.011       0
   16716 MEMB 24   POPS H5X  HAL2           0.09         1.008       0
   16717 MEMB 24   POPS H5Y  HAL2           0.09         1.008       0
   16718 MEMB 24   POPS C36  CTL2          -0.18        12.011       0
   16719 MEMB 24   POPS H6X  HAL2           0.09         1.008       0
   16720 MEMB 24   POPS H6Y  HAL2           0.09         1.008       0
   16721 MEMB 24   POPS C37  CTL2          -0.18        12.011       0
   16722 MEMB 24   POPS H7X  HAL2           0.09         1.008       0
   16723 MEMB 24   POPS H7Y  HAL2           0.09         1.008       0
   16724 MEMB 24   POPS C38  CTL2          -0.18        12.011       0
   16725 MEMB 24   POPS H8X  HAL2           0.09         1.008       0
   16726 MEMB 24   POPS H8Y  HAL2           0.09         1.008       0
   16727 MEMB 24   POPS C39  CTL2          -0.18        12.011       0
   16728 MEMB 24   POPS H9X  HAL2           0.09         1.008       0
   16729 MEMB 24   POPS H9Y  HAL2           0.09         1.008       0
   16730 MEMB 24   POPS C310 CTL2          -0.18        12.011       0
   16731 MEMB 24   POPS H10X HAL2           0.09         1.008       0
   16732 MEMB 24   POPS H10Y HAL2           0.09         1.008       0
   16733 MEMB 24   POPS C311 CTL2          -0.18        12.011       0
   16734 MEMB 24   POPS H11X HAL2           0.09         1.008       0
   16735 MEMB 24   POPS H11Y HAL2           0.09         1.008       0
   16736 MEMB 24   POPS C312 CTL2          -0.18        12.011       0
   16737 MEMB 24   POPS H12X HAL2           0.09         1.008       0
   16738 MEMB 24   POPS H12Y HAL2           0.09         1.008       0
   16739 MEMB 24   POPS C313 CTL2          -0.18        12.011       0
   16740 MEMB 24   POPS H13X HAL2           0.09         1.008       0
   16741 MEMB 24   POPS H13Y HAL2           0.09         1.008       0
   16742 MEMB 24   POPS C314 CTL2          -0.18        12.011       0
   16743 MEMB 24   POPS H14X HAL2           0.09         1.008       0
   16744 MEMB 24   POPS H14Y HAL2           0.09         1.008       0
   16745 MEMB 24   POPS C315 CTL2          -0.18        12.011       0
   16746 MEMB 24   POPS H15X HAL2           0.09         1.008       0
   16747 MEMB 24   POPS H15Y HAL2           0.09         1.008       0
   16748 MEMB 24   POPS C316 CTL3          -0.27        12.011       0
   16749 MEMB 24   POPS H16X HAL3           0.09         1.008       0
   16750 MEMB 24   POPS H16Y HAL3           0.09         1.008       0
   16751 MEMB 24   POPS H16Z HAL3           0.09         1.008       0
   16752 MEMB 25   PSM  N    NTL            -0.6        14.007       0
   16753 MEMB 25   PSM  C15  CTL5          -0.35        12.011       0
   16754 MEMB 25   PSM  H15A HL             0.25         1.008       0
   16755 MEMB 25   PSM  H15B HL             0.25         1.008       0
   16756 MEMB 25   PSM  H15C HL             0.25         1.008       0
   16757 MEMB 25   PSM  C14  CTL5          -0.35        12.011       0
   16758 MEMB 25   PSM  H14A HL             0.25         1.008       0
   16759 MEMB 25   PSM  H14B HL             0.25         1.008       0
   16760 MEMB 25   PSM  H14C HL             0.25         1.008       0
   16761 MEMB 25   PSM  C13  CTL5          -0.35        12.011       0
   16762 MEMB 25   PSM  H13A HL             0.25         1.008       0
   16763 MEMB 25   PSM  H13B HL             0.25         1.008       0
   16764 MEMB 25   PSM  H13C HL             0.25         1.008       0
   16765 MEMB 25   PSM  C12  CTL2           -0.1        12.011       0
   16766 MEMB 25   PSM  H12A HL             0.25         1.008       0
   16767 MEMB 25   PSM  H12B HL             0.25         1.008       0
   16768 MEMB 25   PSM  C11  CTL2          -0.08        12.011       0
   16769 MEMB 25   PSM  H11A HAL2           0.09         1.008       0
   16770 MEMB 25   PSM  H11B HAL2           0.09         1.008       0
   16771 MEMB 25   PSM  P    PL              1.5        30.974       0
   16772 MEMB 25   PSM  O13  O2L           -0.78       15.9994       0
   16773 MEMB 25   PSM  O14  O2L           -0.78       15.9994       0
   16774 MEMB 25   PSM  O11  OSLP          -0.57       15.9994       0
   16775 MEMB 25   PSM  O12  OSLP          -0.57       15.9994       0
   16776 MEMB 25   PSM  C1S  CTL2          -0.08        12.011       0
   16777 MEMB 25   PSM  H1S  HAL2           0.09         1.008       0
   16778 MEMB 25   PSM  H1T  HAL2           0.09         1.008       0
   16779 MEMB 25   PSM  NF   NHL            -0.7        14.007       0
   16780 MEMB 25   PSM  HNF  H              0.35         1.008       0
   16781 MEMB 25   PSM  C2S  CTL1            0.3        12.011       0
   16782 MEMB 25   PSM  H2S  HAL1           0.05         1.008       0
   16783 MEMB 25   PSM  C3S  CTO1            0.5        12.011       0
   16784 MEMB 25   PSM  H3S  HAL1          -0.11         1.008       0
   16785 MEMB 25   PSM  O3   OHL           -0.69       15.9994       0
   16786 MEMB 25   PSM  HO3  HOL             0.3         1.008       0
   16787 MEMB 25   PSM  C4S  CEL3          -0.15        12.011       0
   16788 MEMB 25   PSM  H4S  HEL1           0.15         1.008       0
   16789 MEMB 25   PSM  C5S  CEL3          -0.15        12.011       0
   16790 MEMB 25   PSM  H5S  HEL1           0.15         1.008       0
   16791 MEMB 25   PSM  C6S  CTL2          -0.18        12.011       0
   16792 MEMB 25   PSM  H6S  HAL2           0.09         1.008       0
   16793 MEMB 25   PSM  H6T  HAL2           0.09         1.008       0
   16794 MEMB 25   PSM  C7S  CTL2          -0.18        12.011       0
   16795 MEMB 25   PSM  H7S  HAL2           0.09         1.008       0
   16796 MEMB 25   PSM  H7T  HAL2           0.09         1.008       0
   16797 MEMB 25   PSM  C8S  CTL2          -0.18        12.011       0
   16798 MEMB 25   PSM  H8S  HAL2           0.09         1.008       0
   16799 MEMB 25   PSM  H8T  HAL2           0.09         1.008       0
   16800 MEMB 25   PSM  C9S  CTL2          -0.18        12.011       0
   16801 MEMB 25   PSM  H9S  HAL2           0.09         1.008       0
   16802 MEMB 25   PSM  H9T  HAL2           0.09         1.008       0
   16803 MEMB 25   PSM  C10S CTL2          -0.18        12.011       0
   16804 MEMB 25   PSM  H10S HAL2           0.09         1.008       0
   16805 MEMB 25   PSM  H10T HAL2           0.09         1.008       0
   16806 MEMB 25   PSM  C11S CTL2          -0.18        12.011       0
   16807 MEMB 25   PSM  H11S HAL2           0.09         1.008       0
   16808 MEMB 25   PSM  H11T HAL2           0.09         1.008       0
   16809 MEMB 25   PSM  C12S CTL2          -0.18        12.011       0
   16810 MEMB 25   PSM  H12S HAL2           0.09         1.008       0
   16811 MEMB 25   PSM  H12T HAL2           0.09         1.008       0
   16812 MEMB 25   PSM  C13S CTL2          -0.18        12.011       0
   16813 MEMB 25   PSM  H13S HAL2           0.09         1.008       0
   16814 MEMB 25   PSM  H13T HAL2           0.09         1.008       0
   16815 MEMB 25   PSM  C14S CTL2          -0.18        12.011       0
   16816 MEMB 25   PSM  H14S HAL2           0.09         1.008       0
   16817 MEMB 25   PSM  H14T HAL2           0.09         1.008       0
   16818 MEMB 25   PSM  C15S CTL2          -0.18        12.011       0
   16819 MEMB 25   PSM  H15S HAL2           0.09         1.008       0
   16820 MEMB 25   PSM  H15T HAL2           0.09         1.008       0
   16821 MEMB 25   PSM  C16S CTL2          -0.18        12.011       0
   16822 MEMB 25   PSM  H16S HAL2           0.09         1.008       0
   16823 MEMB 25   PSM  H16T HAL2           0.09         1.008       0
   16824 MEMB 25   PSM  C17S CTL2          -0.18        12.011       0
   16825 MEMB 25   PSM  H17S HAL2           0.09         1.008       0
   16826 MEMB 25   PSM  H17T HAL2           0.09         1.008       0
   16827 MEMB 25   PSM  C18S CTL3          -0.27        12.011       0
   16828 MEMB 25   PSM  H18S HAL3           0.09         1.008       0
   16829 MEMB 25   PSM  H18T HAL3           0.09         1.008       0
   16830 MEMB 25   PSM  H18U HAL3           0.09         1.008       0
   16831 MEMB 25   PSM  C1F  C              0.55        12.011       0
   16832 MEMB 25   PSM  OF   O              -0.6        15.999       0
   16833 MEMB 25   PSM  C2F  CTL2          -0.07        12.011       0
   16834 MEMB 25   PSM  H2F  HAL2           0.06         1.008       0
   16835 MEMB 25   PSM  H2G  HAL2           0.06         1.008       0
   16836 MEMB 25   PSM  C3F  CTL2          -0.18        12.011       0
   16837 MEMB 25   PSM  H3F  HAL2           0.09         1.008       0
   16838 MEMB 25   PSM  H3G  HAL2           0.09         1.008       0
   16839 MEMB 25   PSM  C4F  CTL2          -0.18        12.011       0
   16840 MEMB 25   PSM  H4F  HAL2           0.09         1.008       0
   16841 MEMB 25   PSM  H4G  HAL2           0.09         1.008       0
   16842 MEMB 25   PSM  C5F  CTL2          -0.18        12.011       0
   16843 MEMB 25   PSM  H5F  HAL2           0.09         1.008       0
   16844 MEMB 25   PSM  H5G  HAL2           0.09         1.008       0
   16845 MEMB 25   PSM  C6F  CTL2          -0.18        12.011       0
   16846 MEMB 25   PSM  H6F  HAL2           0.09         1.008       0
   16847 MEMB 25   PSM  H6G  HAL2           0.09         1.008       0
   16848 MEMB 25   PSM  C7F  CTL2          -0.18        12.011       0
   16849 MEMB 25   PSM  H7F  HAL2           0.09         1.008       0
   16850 MEMB 25   PSM  H7G  HAL2           0.09         1.008       0
   16851 MEMB 25   PSM  C8F  CTL2          -0.18        12.011       0
   16852 MEMB 25   PSM  H8F  HAL2           0.09         1.008       0
   16853 MEMB 25   PSM  H8G  HAL2           0.09         1.008       0
   16854 MEMB 25   PSM  C9F  CTL2          -0.18        12.011       0
   16855 MEMB 25   PSM  H9F  HAL2           0.09         1.008       0
   16856 MEMB 25   PSM  H9G  HAL2           0.09         1.008       0
   16857 MEMB 25   PSM  C10F CTL2          -0.18        12.011       0
   16858 MEMB 25   PSM  H10F HAL2           0.09         1.008       0
   16859 MEMB 25   PSM  H10G HAL2           0.09         1.008       0
   16860 MEMB 25   PSM  C11F CTL2          -0.18        12.011       0
   16861 MEMB 25   PSM  H11F HAL2           0.09         1.008       0
   16862 MEMB 25   PSM  H11G HAL2           0.09         1.008       0
   16863 MEMB 25   PSM  C12F CTL2          -0.18        12.011       0
   16864 MEMB 25   PSM  H12F HAL2           0.09         1.008       0
   16865 MEMB 25   PSM  H12G HAL2           0.09         1.008       0
   16866 MEMB 25   PSM  C13F CTL2          -0.18        12.011       0
   16867 MEMB 25   PSM  H13F HAL2           0.09         1.008       0
   16868 MEMB 25   PSM  H13G HAL2           0.09         1.008       0
   16869 MEMB 25   PSM  C14F CTL2          -0.18        12.011       0
   16870 MEMB 25   PSM  H14F HAL2           0.09         1.008       0
   16871 MEMB 25   PSM  H14G HAL2           0.09         1.008       0
   16872 MEMB 25   PSM  C15F CTL2          -0.18        12.011       0
   16873 MEMB 25   PSM  H15F HAL2           0.09         1.008       0
   16874 MEMB 25   PSM  H15G HAL2           0.09         1.008       0
   16875 MEMB 25   PSM  C16F CTL3          -0.27        12.011       0
   16876 MEMB 25   PSM  H16F HAL3           0.09         1.008       0
   16877 MEMB 25   PSM  H16G HAL3           0.09         1.008       0
   16878 MEMB 25   PSM  H16H HAL3           0.09         1.008       0
   16879 MEMB 26   POPC N    NTL            -0.6        14.007       0
   16880 MEMB 26   POPC C12  CTL2           -0.1        12.011       0
   16881 MEMB 26   POPC H12A HL             0.25         1.008       0
   16882 MEMB 26   POPC H12B HL             0.25         1.008       0
   16883 MEMB 26   POPC C13  CTL5          -0.35        12.011       0
   16884 MEMB 26   POPC H13A HL             0.25         1.008       0
   16885 MEMB 26   POPC H13B HL             0.25         1.008       0
   16886 MEMB 26   POPC H13C HL             0.25         1.008       0
   16887 MEMB 26   POPC C14  CTL5          -0.35        12.011       0
   16888 MEMB 26   POPC H14A HL             0.25         1.008       0
   16889 MEMB 26   POPC H14B HL             0.25         1.008       0
   16890 MEMB 26   POPC H14C HL             0.25         1.008       0
   16891 MEMB 26   POPC C15  CTL5          -0.35        12.011       0
   16892 MEMB 26   POPC H15A HL             0.25         1.008       0
   16893 MEMB 26   POPC H15B HL             0.25         1.008       0
   16894 MEMB 26   POPC H15C HL             0.25         1.008       0
   16895 MEMB 26   POPC C11  CTL2          -0.08        12.011       0
   16896 MEMB 26   POPC H11A HAL2           0.09         1.008       0
   16897 MEMB 26   POPC H11B HAL2           0.09         1.008       0
   16898 MEMB 26   POPC P    PL              1.5        30.974       0
   16899 MEMB 26   POPC O13  O2L           -0.78       15.9994       0
   16900 MEMB 26   POPC O14  O2L           -0.78       15.9994       0
   16901 MEMB 26   POPC O12  OSLP          -0.57       15.9994       0
   16902 MEMB 26   POPC O11  OSLP          -0.57       15.9994       0
   16903 MEMB 26   POPC C1   CTL2          -0.08        12.011       0
   16904 MEMB 26   POPC HA   HAL2           0.09         1.008       0
   16905 MEMB 26   POPC HB   HAL2           0.09         1.008       0
   16906 MEMB 26   POPC C2   CTL1           0.17        12.011       0
   16907 MEMB 26   POPC HS   HAL1           0.09         1.008       0
   16908 MEMB 26   POPC O21  OSL           -0.49       15.9994       0
   16909 MEMB 26   POPC C21  CL              0.9        12.011       0
   16910 MEMB 26   POPC O22  OBL           -0.63       15.9994       0
   16911 MEMB 26   POPC C22  CTL2          -0.22        12.011       0
   16912 MEMB 26   POPC H2R  HAL2           0.09         1.008       0
   16913 MEMB 26   POPC H2S  HAL2           0.09         1.008       0
   16914 MEMB 26   POPC C3   CTL2           0.08        12.011       0
   16915 MEMB 26   POPC HX   HAL2           0.09         1.008       0
   16916 MEMB 26   POPC HY   HAL2           0.09         1.008       0
   16917 MEMB 26   POPC O31  OSL           -0.49       15.9994       0
   16918 MEMB 26   POPC C31  CL              0.9        12.011       0
   16919 MEMB 26   POPC O32  OBL           -0.63       15.9994       0
   16920 MEMB 26   POPC C32  CTL2          -0.22        12.011       0
   16921 MEMB 26   POPC H2X  HAL2           0.09         1.008       0
   16922 MEMB 26   POPC H2Y  HAL2           0.09         1.008       0
   16923 MEMB 26   POPC C23  CTL2          -0.18        12.011       0
   16924 MEMB 26   POPC H3R  HAL2           0.09         1.008       0
   16925 MEMB 26   POPC H3S  HAL2           0.09         1.008       0
   16926 MEMB 26   POPC C24  CTL2          -0.18        12.011       0
   16927 MEMB 26   POPC H4R  HAL2           0.09         1.008       0
   16928 MEMB 26   POPC H4S  HAL2           0.09         1.008       0
   16929 MEMB 26   POPC C25  CTL2          -0.18        12.011       0
   16930 MEMB 26   POPC H5R  HAL2           0.09         1.008       0
   16931 MEMB 26   POPC H5S  HAL2           0.09         1.008       0
   16932 MEMB 26   POPC C26  CTL2          -0.18        12.011       0
   16933 MEMB 26   POPC H6R  HAL2           0.09         1.008       0
   16934 MEMB 26   POPC H6S  HAL2           0.09         1.008       0
   16935 MEMB 26   POPC C27  CTL2          -0.18        12.011       0
   16936 MEMB 26   POPC H7R  HAL2           0.09         1.008       0
   16937 MEMB 26   POPC H7S  HAL2           0.09         1.008       0
   16938 MEMB 26   POPC C28  CTL2          -0.18        12.011       0
   16939 MEMB 26   POPC H8R  HAL2           0.09         1.008       0
   16940 MEMB 26   POPC H8S  HAL2           0.09         1.008       0
   16941 MEMB 26   POPC C29  CEL1          -0.15        12.011       0
   16942 MEMB 26   POPC H91  HEL1           0.15         1.008       0
   16943 MEMB 26   POPC C210 CEL1          -0.15        12.011       0
   16944 MEMB 26   POPC H101 HEL1           0.15         1.008       0
   16945 MEMB 26   POPC C211 CTL2          -0.18        12.011       0
   16946 MEMB 26   POPC H11R HAL2           0.09         1.008       0
   16947 MEMB 26   POPC H11S HAL2           0.09         1.008       0
   16948 MEMB 26   POPC C212 CTL2          -0.18        12.011       0
   16949 MEMB 26   POPC H12R HAL2           0.09         1.008       0
   16950 MEMB 26   POPC H12S HAL2           0.09         1.008       0
   16951 MEMB 26   POPC C213 CTL2          -0.18        12.011       0
   16952 MEMB 26   POPC H13R HAL2           0.09         1.008       0
   16953 MEMB 26   POPC H13S HAL2           0.09         1.008       0
   16954 MEMB 26   POPC C214 CTL2          -0.18        12.011       0
   16955 MEMB 26   POPC H14R HAL2           0.09         1.008       0
   16956 MEMB 26   POPC H14S HAL2           0.09         1.008       0
   16957 MEMB 26   POPC C215 CTL2          -0.18        12.011       0
   16958 MEMB 26   POPC H15R HAL2           0.09         1.008       0
   16959 MEMB 26   POPC H15S HAL2           0.09         1.008       0
   16960 MEMB 26   POPC C216 CTL2          -0.18        12.011       0
   16961 MEMB 26   POPC H16R HAL2           0.09         1.008       0
   16962 MEMB 26   POPC H16S HAL2           0.09         1.008       0
   16963 MEMB 26   POPC C217 CTL2          -0.18        12.011       0
   16964 MEMB 26   POPC H17R HAL2           0.09         1.008       0
   16965 MEMB 26   POPC H17S HAL2           0.09         1.008       0
   16966 MEMB 26   POPC C218 CTL3          -0.27        12.011       0
   16967 MEMB 26   POPC H18R HAL3           0.09         1.008       0
   16968 MEMB 26   POPC H18S HAL3           0.09         1.008       0
   16969 MEMB 26   POPC H18T HAL3           0.09         1.008       0
   16970 MEMB 26   POPC C33  CTL2          -0.18        12.011       0
   16971 MEMB 26   POPC H3X  HAL2           0.09         1.008       0
   16972 MEMB 26   POPC H3Y  HAL2           0.09         1.008       0
   16973 MEMB 26   POPC C34  CTL2          -0.18        12.011       0
   16974 MEMB 26   POPC H4X  HAL2           0.09         1.008       0
   16975 MEMB 26   POPC H4Y  HAL2           0.09         1.008       0
   16976 MEMB 26   POPC C35  CTL2          -0.18        12.011       0
   16977 MEMB 26   POPC H5X  HAL2           0.09         1.008       0
   16978 MEMB 26   POPC H5Y  HAL2           0.09         1.008       0
   16979 MEMB 26   POPC C36  CTL2          -0.18        12.011       0
   16980 MEMB 26   POPC H6X  HAL2           0.09         1.008       0
   16981 MEMB 26   POPC H6Y  HAL2           0.09         1.008       0
   16982 MEMB 26   POPC C37  CTL2          -0.18        12.011       0
   16983 MEMB 26   POPC H7X  HAL2           0.09         1.008       0
   16984 MEMB 26   POPC H7Y  HAL2           0.09         1.008       0
   16985 MEMB 26   POPC C38  CTL2          -0.18        12.011       0
   16986 MEMB 26   POPC H8X  HAL2           0.09         1.008       0
   16987 MEMB 26   POPC H8Y  HAL2           0.09         1.008       0
   16988 MEMB 26   POPC C39  CTL2          -0.18        12.011       0
   16989 MEMB 26   POPC H9X  HAL2           0.09         1.008       0
   16990 MEMB 26   POPC H9Y  HAL2           0.09         1.008       0
   16991 MEMB 26   POPC C310 CTL2          -0.18        12.011       0
   16992 MEMB 26   POPC H10X HAL2           0.09         1.008       0
   16993 MEMB 26   POPC H10Y HAL2           0.09         1.008       0
   16994 MEMB 26   POPC C311 CTL2          -0.18        12.011       0
   16995 MEMB 26   POPC H11X HAL2           0.09         1.008       0
   16996 MEMB 26   POPC H11Y HAL2           0.09         1.008       0
   16997 MEMB 26   POPC C312 CTL2          -0.18        12.011       0
   16998 MEMB 26   POPC H12X HAL2           0.09         1.008       0
   16999 MEMB 26   POPC H12Y HAL2           0.09         1.008       0
   17000 MEMB 26   POPC C313 CTL2          -0.18        12.011       0
   17001 MEMB 26   POPC H13X HAL2           0.09         1.008       0
   17002 MEMB 26   POPC H13Y HAL2           0.09         1.008       0
   17003 MEMB 26   POPC C314 CTL2          -0.18        12.011       0
   17004 MEMB 26   POPC H14X HAL2           0.09         1.008       0
   17005 MEMB 26   POPC H14Y HAL2           0.09         1.008       0
   17006 MEMB 26   POPC C315 CTL2          -0.18        12.011       0
   17007 MEMB 26   POPC H15X HAL2           0.09         1.008       0
   17008 MEMB 26   POPC H15Y HAL2           0.09         1.008       0
   17009 MEMB 26   POPC C316 CTL3          -0.27        12.011       0
   17010 MEMB 26   POPC H16X HAL3           0.09         1.008       0
   17011 MEMB 26   POPC H16Y HAL3           0.09         1.008       0
   17012 MEMB 26   POPC H16Z HAL3           0.09         1.008       0
   17013 MEMB 27   POPE N    NH3L           -0.3        14.007       0
   17014 MEMB 27   POPE HN1  HCL            0.33         1.008       0
   17015 MEMB 27   POPE HN2  HCL            0.33         1.008       0
   17016 MEMB 27   POPE HN3  HCL            0.33         1.008       0
   17017 MEMB 27   POPE C12  CTL2           0.13        12.011       0
   17018 MEMB 27   POPE H12A HAL2           0.09         1.008       0
   17019 MEMB 27   POPE H12B HAL2           0.09         1.008       0
   17020 MEMB 27   POPE C11  CTL2          -0.08        12.011       0
   17021 MEMB 27   POPE H11A HAL2           0.09         1.008       0
   17022 MEMB 27   POPE H11B HAL2           0.09         1.008       0
   17023 MEMB 27   POPE P    PL              1.5        30.974       0
   17024 MEMB 27   POPE O13  O2L           -0.78       15.9994       0
   17025 MEMB 27   POPE O14  O2L           -0.78       15.9994       0
   17026 MEMB 27   POPE O11  OSLP          -0.57       15.9994       0
   17027 MEMB 27   POPE O12  OSLP          -0.57       15.9994       0
   17028 MEMB 27   POPE C1   CTL2          -0.08        12.011       0
   17029 MEMB 27   POPE HA   HAL2           0.09         1.008       0
   17030 MEMB 27   POPE HB   HAL2           0.09         1.008       0
   17031 MEMB 27   POPE C2   CTL1           0.17        12.011       0
   17032 MEMB 27   POPE HS   HAL1           0.09         1.008       0
   17033 MEMB 27   POPE O21  OSL           -0.49       15.9994       0
   17034 MEMB 27   POPE C21  CL              0.9        12.011       0
   17035 MEMB 27   POPE O22  OBL           -0.63       15.9994       0
   17036 MEMB 27   POPE C22  CTL2          -0.22        12.011       0
   17037 MEMB 27   POPE H2R  HAL2           0.09         1.008       0
   17038 MEMB 27   POPE H2S  HAL2           0.09         1.008       0
   17039 MEMB 27   POPE C3   CTL2           0.08        12.011       0
   17040 MEMB 27   POPE HX   HAL2           0.09         1.008       0
   17041 MEMB 27   POPE HY   HAL2           0.09         1.008       0
   17042 MEMB 27   POPE O31  OSL           -0.49       15.9994       0
   17043 MEMB 27   POPE C31  CL              0.9        12.011       0
   17044 MEMB 27   POPE O32  OBL           -0.63       15.9994       0
   17045 MEMB 27   POPE C32  CTL2          -0.22        12.011       0
   17046 MEMB 27   POPE H2X  HAL2           0.09         1.008       0
   17047 MEMB 27   POPE H2Y  HAL2           0.09         1.008       0
   17048 MEMB 27   POPE C23  CTL2          -0.18        12.011       0
   17049 MEMB 27   POPE H3R  HAL2           0.09         1.008       0
   17050 MEMB 27   POPE H3S  HAL2           0.09         1.008       0
   17051 MEMB 27   POPE C24  CTL2          -0.18        12.011       0
   17052 MEMB 27   POPE H4R  HAL2           0.09         1.008       0
   17053 MEMB 27   POPE H4S  HAL2           0.09         1.008       0
   17054 MEMB 27   POPE C25  CTL2          -0.18        12.011       0
   17055 MEMB 27   POPE H5R  HAL2           0.09         1.008       0
   17056 MEMB 27   POPE H5S  HAL2           0.09         1.008       0
   17057 MEMB 27   POPE C26  CTL2          -0.18        12.011       0
   17058 MEMB 27   POPE H6R  HAL2           0.09         1.008       0
   17059 MEMB 27   POPE H6S  HAL2           0.09         1.008       0
   17060 MEMB 27   POPE C27  CTL2          -0.18        12.011       0
   17061 MEMB 27   POPE H7R  HAL2           0.09         1.008       0
   17062 MEMB 27   POPE H7S  HAL2           0.09         1.008       0
   17063 MEMB 27   POPE C28  CTL2          -0.18        12.011       0
   17064 MEMB 27   POPE H8R  HAL2           0.09         1.008       0
   17065 MEMB 27   POPE H8S  HAL2           0.09         1.008       0
   17066 MEMB 27   POPE C29  CEL1          -0.15        12.011       0
   17067 MEMB 27   POPE H91  HEL1           0.15         1.008       0
   17068 MEMB 27   POPE C210 CEL1          -0.15        12.011       0
   17069 MEMB 27   POPE H101 HEL1           0.15         1.008       0
   17070 MEMB 27   POPE C211 CTL2          -0.18        12.011       0
   17071 MEMB 27   POPE H11R HAL2           0.09         1.008       0
   17072 MEMB 27   POPE H11S HAL2           0.09         1.008       0
   17073 MEMB 27   POPE C212 CTL2          -0.18        12.011       0
   17074 MEMB 27   POPE H12R HAL2           0.09         1.008       0
   17075 MEMB 27   POPE H12S HAL2           0.09         1.008       0
   17076 MEMB 27   POPE C213 CTL2          -0.18        12.011       0
   17077 MEMB 27   POPE H13R HAL2           0.09         1.008       0
   17078 MEMB 27   POPE H13S HAL2           0.09         1.008       0
   17079 MEMB 27   POPE C214 CTL2          -0.18        12.011       0
   17080 MEMB 27   POPE H14R HAL2           0.09         1.008       0
   17081 MEMB 27   POPE H14S HAL2           0.09         1.008       0
   17082 MEMB 27   POPE C215 CTL2          -0.18        12.011       0
   17083 MEMB 27   POPE H15R HAL2           0.09         1.008       0
   17084 MEMB 27   POPE H15S HAL2           0.09         1.008       0
   17085 MEMB 27   POPE C216 CTL2          -0.18        12.011       0
   17086 MEMB 27   POPE H16R HAL2           0.09         1.008       0
   17087 MEMB 27   POPE H16S HAL2           0.09         1.008       0
   17088 MEMB 27   POPE C217 CTL2          -0.18        12.011       0
   17089 MEMB 27   POPE H17R HAL2           0.09         1.008       0
   17090 MEMB 27   POPE H17S HAL2           0.09         1.008       0
   17091 MEMB 27   POPE C218 CTL3          -0.27        12.011       0
   17092 MEMB 27   POPE H18R HAL3           0.09         1.008       0
   17093 MEMB 27   POPE H18S HAL3           0.09         1.008       0
   17094 MEMB 27   POPE H18T HAL3           0.09         1.008       0
   17095 MEMB 27   POPE C33  CTL2          -0.18        12.011       0
   17096 MEMB 27   POPE H3X  HAL2           0.09         1.008       0
   17097 MEMB 27   POPE H3Y  HAL2           0.09         1.008       0
   17098 MEMB 27   POPE C34  CTL2          -0.18        12.011       0
   17099 MEMB 27   POPE H4X  HAL2           0.09         1.008       0
   17100 MEMB 27   POPE H4Y  HAL2           0.09         1.008       0
   17101 MEMB 27   POPE C35  CTL2          -0.18        12.011       0
   17102 MEMB 27   POPE H5X  HAL2           0.09         1.008       0
   17103 MEMB 27   POPE H5Y  HAL2           0.09         1.008       0
   17104 MEMB 27   POPE C36  CTL2          -0.18        12.011       0
   17105 MEMB 27   POPE H6X  HAL2           0.09         1.008       0
   17106 MEMB 27   POPE H6Y  HAL2           0.09         1.008       0
   17107 MEMB 27   POPE C37  CTL2          -0.18        12.011       0
   17108 MEMB 27   POPE H7X  HAL2           0.09         1.008       0
   17109 MEMB 27   POPE H7Y  HAL2           0.09         1.008       0
   17110 MEMB 27   POPE C38  CTL2          -0.18        12.011       0
   17111 MEMB 27   POPE H8X  HAL2           0.09         1.008       0
   17112 MEMB 27   POPE H8Y  HAL2           0.09         1.008       0
   17113 MEMB 27   POPE C39  CTL2          -0.18        12.011       0
   17114 MEMB 27   POPE H9X  HAL2           0.09         1.008       0
   17115 MEMB 27   POPE H9Y  HAL2           0.09         1.008       0
   17116 MEMB 27   POPE C310 CTL2          -0.18        12.011       0
   17117 MEMB 27   POPE H10X HAL2           0.09         1.008       0
   17118 MEMB 27   POPE H10Y HAL2           0.09         1.008       0
   17119 MEMB 27   POPE C311 CTL2          -0.18        12.011       0
   17120 MEMB 27   POPE H11X HAL2           0.09         1.008       0
   17121 MEMB 27   POPE H11Y HAL2           0.09         1.008       0
   17122 MEMB 27   POPE C312 CTL2          -0.18        12.011       0
   17123 MEMB 27   POPE H12X HAL2           0.09         1.008       0
   17124 MEMB 27   POPE H12Y HAL2           0.09         1.008       0
   17125 MEMB 27   POPE C313 CTL2          -0.18        12.011       0
   17126 MEMB 27   POPE H13X HAL2           0.09         1.008       0
   17127 MEMB 27   POPE H13Y HAL2           0.09         1.008       0
   17128 MEMB 27   POPE C314 CTL2          -0.18        12.011       0
   17129 MEMB 27   POPE H14X HAL2           0.09         1.008       0
   17130 MEMB 27   POPE H14Y HAL2           0.09         1.008       0
   17131 MEMB 27   POPE C315 CTL2          -0.18        12.011       0
   17132 MEMB 27   POPE H15X HAL2           0.09         1.008       0
   17133 MEMB 27   POPE H15Y HAL2           0.09         1.008       0
   17134 MEMB 27   POPE C316 CTL3          -0.27        12.011       0
   17135 MEMB 27   POPE H16X HAL3           0.09         1.008       0
   17136 MEMB 27   POPE H16Y HAL3           0.09         1.008       0
   17137 MEMB 27   POPE H16Z HAL3           0.09         1.008       0
   17138 MEMB 28   POPS N    NH3L           -0.3        14.007       0
   17139 MEMB 28   POPS HN1  HCL            0.33         1.008       0
   17140 MEMB 28   POPS HN2  HCL            0.33         1.008       0
   17141 MEMB 28   POPS HN3  HCL            0.33         1.008       0
   17142 MEMB 28   POPS C12  CTL1           0.21        12.011       0
   17143 MEMB 28   POPS H12A HBL             0.1         1.008       0
   17144 MEMB 28   POPS C13  CCL            0.34        12.011       0
   17145 MEMB 28   POPS O13A OCL           -0.67       15.9994       0
   17146 MEMB 28   POPS O13B OCL           -0.67       15.9994       0
   17147 MEMB 28   POPS C11  CTL2          -0.08        12.011       0
   17148 MEMB 28   POPS H11A HAL2           0.09         1.008       0
   17149 MEMB 28   POPS H11B HAL2           0.09         1.008       0
   17150 MEMB 28   POPS P    PL              1.5        30.974       0
   17151 MEMB 28   POPS O13  O2L           -0.78       15.9994       0
   17152 MEMB 28   POPS O14  O2L           -0.78       15.9994       0
   17153 MEMB 28   POPS O12  OSLP          -0.57       15.9994       0
   17154 MEMB 28   POPS O11  OSLP          -0.57       15.9994       0
   17155 MEMB 28   POPS C1   CTL2          -0.08        12.011       0
   17156 MEMB 28   POPS HA   HAL2           0.09         1.008       0
   17157 MEMB 28   POPS HB   HAL2           0.09         1.008       0
   17158 MEMB 28   POPS C2   CTL1           0.17        12.011       0
   17159 MEMB 28   POPS HS   HAL1           0.09         1.008       0
   17160 MEMB 28   POPS O21  OSL           -0.49       15.9994       0
   17161 MEMB 28   POPS C21  CL              0.9        12.011       0
   17162 MEMB 28   POPS O22  OBL           -0.63       15.9994       0
   17163 MEMB 28   POPS C22  CTL2          -0.22        12.011       0
   17164 MEMB 28   POPS H2R  HAL2           0.09         1.008       0
   17165 MEMB 28   POPS H2S  HAL2           0.09         1.008       0
   17166 MEMB 28   POPS C3   CTL2           0.08        12.011       0
   17167 MEMB 28   POPS HX   HAL2           0.09         1.008       0
   17168 MEMB 28   POPS HY   HAL2           0.09         1.008       0
   17169 MEMB 28   POPS O31  OSL           -0.49       15.9994       0
   17170 MEMB 28   POPS C31  CL              0.9        12.011       0
   17171 MEMB 28   POPS O32  OBL           -0.63       15.9994       0
   17172 MEMB 28   POPS C32  CTL2          -0.22        12.011       0
   17173 MEMB 28   POPS H2X  HAL2           0.09         1.008       0
   17174 MEMB 28   POPS H2Y  HAL2           0.09         1.008       0
   17175 MEMB 28   POPS C23  CTL2          -0.18        12.011       0
   17176 MEMB 28   POPS H3R  HAL2           0.09         1.008       0
   17177 MEMB 28   POPS H3S  HAL2           0.09         1.008       0
   17178 MEMB 28   POPS C24  CTL2          -0.18        12.011       0
   17179 MEMB 28   POPS H4R  HAL2           0.09         1.008       0
   17180 MEMB 28   POPS H4S  HAL2           0.09         1.008       0
   17181 MEMB 28   POPS C25  CTL2          -0.18        12.011       0
   17182 MEMB 28   POPS H5R  HAL2           0.09         1.008       0
   17183 MEMB 28   POPS H5S  HAL2           0.09         1.008       0
   17184 MEMB 28   POPS C26  CTL2          -0.18        12.011       0
   17185 MEMB 28   POPS H6R  HAL2           0.09         1.008       0
   17186 MEMB 28   POPS H6S  HAL2           0.09         1.008       0
   17187 MEMB 28   POPS C27  CTL2          -0.18        12.011       0
   17188 MEMB 28   POPS H7R  HAL2           0.09         1.008       0
   17189 MEMB 28   POPS H7S  HAL2           0.09         1.008       0
   17190 MEMB 28   POPS C28  CTL2          -0.18        12.011       0
   17191 MEMB 28   POPS H8R  HAL2           0.09         1.008       0
   17192 MEMB 28   POPS H8S  HAL2           0.09         1.008       0
   17193 MEMB 28   POPS C29  CEL1          -0.15        12.011       0
   17194 MEMB 28   POPS H91  HEL1           0.15         1.008       0
   17195 MEMB 28   POPS C210 CEL1          -0.15        12.011       0
   17196 MEMB 28   POPS H101 HEL1           0.15         1.008       0
   17197 MEMB 28   POPS C211 CTL2          -0.18        12.011       0
   17198 MEMB 28   POPS H11R HAL2           0.09         1.008       0
   17199 MEMB 28   POPS H11S HAL2           0.09         1.008       0
   17200 MEMB 28   POPS C212 CTL2          -0.18        12.011       0
   17201 MEMB 28   POPS H12R HAL2           0.09         1.008       0
   17202 MEMB 28   POPS H12S HAL2           0.09         1.008       0
   17203 MEMB 28   POPS C213 CTL2          -0.18        12.011       0
   17204 MEMB 28   POPS H13R HAL2           0.09         1.008       0
   17205 MEMB 28   POPS H13S HAL2           0.09         1.008       0
   17206 MEMB 28   POPS C214 CTL2          -0.18        12.011       0
   17207 MEMB 28   POPS H14R HAL2           0.09         1.008       0
   17208 MEMB 28   POPS H14S HAL2           0.09         1.008       0
   17209 MEMB 28   POPS C215 CTL2          -0.18        12.011       0
   17210 MEMB 28   POPS H15R HAL2           0.09         1.008       0
   17211 MEMB 28   POPS H15S HAL2           0.09         1.008       0
   17212 MEMB 28   POPS C216 CTL2          -0.18        12.011       0
   17213 MEMB 28   POPS H16R HAL2           0.09         1.008       0
   17214 MEMB 28   POPS H16S HAL2           0.09         1.008       0
   17215 MEMB 28   POPS C217 CTL2          -0.18        12.011       0
   17216 MEMB 28   POPS H17R HAL2           0.09         1.008       0
   17217 MEMB 28   POPS H17S HAL2           0.09         1.008       0
   17218 MEMB 28   POPS C218 CTL3          -0.27        12.011       0
   17219 MEMB 28   POPS H18R HAL3           0.09         1.008       0
   17220 MEMB 28   POPS H18S HAL3           0.09         1.008       0
   17221 MEMB 28   POPS H18T HAL3           0.09         1.008       0
   17222 MEMB 28   POPS C33  CTL2          -0.18        12.011       0
   17223 MEMB 28   POPS H3X  HAL2           0.09         1.008       0
   17224 MEMB 28   POPS H3Y  HAL2           0.09         1.008       0
   17225 MEMB 28   POPS C34  CTL2          -0.18        12.011       0
   17226 MEMB 28   POPS H4X  HAL2           0.09         1.008       0
   17227 MEMB 28   POPS H4Y  HAL2           0.09         1.008       0
   17228 MEMB 28   POPS C35  CTL2          -0.18        12.011       0
   17229 MEMB 28   POPS H5X  HAL2           0.09         1.008       0
   17230 MEMB 28   POPS H5Y  HAL2           0.09         1.008       0
   17231 MEMB 28   POPS C36  CTL2          -0.18        12.011       0
   17232 MEMB 28   POPS H6X  HAL2           0.09         1.008       0
   17233 MEMB 28   POPS H6Y  HAL2           0.09         1.008       0
   17234 MEMB 28   POPS C37  CTL2          -0.18        12.011       0
   17235 MEMB 28   POPS H7X  HAL2           0.09         1.008       0
   17236 MEMB 28   POPS H7Y  HAL2           0.09         1.008       0
   17237 MEMB 28   POPS C38  CTL2          -0.18        12.011       0
   17238 MEMB 28   POPS H8X  HAL2           0.09         1.008       0
   17239 MEMB 28   POPS H8Y  HAL2           0.09         1.008       0
   17240 MEMB 28   POPS C39  CTL2          -0.18        12.011       0
   17241 MEMB 28   POPS H9X  HAL2           0.09         1.008       0
   17242 MEMB 28   POPS H9Y  HAL2           0.09         1.008       0
   17243 MEMB 28   POPS C310 CTL2          -0.18        12.011       0
   17244 MEMB 28   POPS H10X HAL2           0.09         1.008       0
   17245 MEMB 28   POPS H10Y HAL2           0.09         1.008       0
   17246 MEMB 28   POPS C311 CTL2          -0.18        12.011       0
   17247 MEMB 28   POPS H11X HAL2           0.09         1.008       0
   17248 MEMB 28   POPS H11Y HAL2           0.09         1.008       0
   17249 MEMB 28   POPS C312 CTL2          -0.18        12.011       0
   17250 MEMB 28   POPS H12X HAL2           0.09         1.008       0
   17251 MEMB 28   POPS H12Y HAL2           0.09         1.008       0
   17252 MEMB 28   POPS C313 CTL2          -0.18        12.011       0
   17253 MEMB 28   POPS H13X HAL2           0.09         1.008       0
   17254 MEMB 28   POPS H13Y HAL2           0.09         1.008       0
   17255 MEMB 28   POPS C314 CTL2          -0.18        12.011       0
   17256 MEMB 28   POPS H14X HAL2           0.09         1.008       0
   17257 MEMB 28   POPS H14Y HAL2           0.09         1.008       0
   17258 MEMB 28   POPS C315 CTL2          -0.18        12.011       0
   17259 MEMB 28   POPS H15X HAL2           0.09         1.008       0
   17260 MEMB 28   POPS H15Y HAL2           0.09         1.008       0
   17261 MEMB 28   POPS C316 CTL3          -0.27        12.011       0
   17262 MEMB 28   POPS H16X HAL3           0.09         1.008       0
   17263 MEMB 28   POPS H16Y HAL3           0.09         1.008       0
   17264 MEMB 28   POPS H16Z HAL3           0.09         1.008       0
   17265 MEMB 29   POPE N    NH3L           -0.3        14.007       0
   17266 MEMB 29   POPE HN1  HCL            0.33         1.008       0
   17267 MEMB 29   POPE HN2  HCL            0.33         1.008       0
   17268 MEMB 29   POPE HN3  HCL            0.33         1.008       0
   17269 MEMB 29   POPE C12  CTL2           0.13        12.011       0
   17270 MEMB 29   POPE H12A HAL2           0.09         1.008       0
   17271 MEMB 29   POPE H12B HAL2           0.09         1.008       0
   17272 MEMB 29   POPE C11  CTL2          -0.08        12.011       0
   17273 MEMB 29   POPE H11A HAL2           0.09         1.008       0
   17274 MEMB 29   POPE H11B HAL2           0.09         1.008       0
   17275 MEMB 29   POPE P    PL              1.5        30.974       0
   17276 MEMB 29   POPE O13  O2L           -0.78       15.9994       0
   17277 MEMB 29   POPE O14  O2L           -0.78       15.9994       0
   17278 MEMB 29   POPE O11  OSLP          -0.57       15.9994       0
   17279 MEMB 29   POPE O12  OSLP          -0.57       15.9994       0
   17280 MEMB 29   POPE C1   CTL2          -0.08        12.011       0
   17281 MEMB 29   POPE HA   HAL2           0.09         1.008       0
   17282 MEMB 29   POPE HB   HAL2           0.09         1.008       0
   17283 MEMB 29   POPE C2   CTL1           0.17        12.011       0
   17284 MEMB 29   POPE HS   HAL1           0.09         1.008       0
   17285 MEMB 29   POPE O21  OSL           -0.49       15.9994       0
   17286 MEMB 29   POPE C21  CL              0.9        12.011       0
   17287 MEMB 29   POPE O22  OBL           -0.63       15.9994       0
   17288 MEMB 29   POPE C22  CTL2          -0.22        12.011       0
   17289 MEMB 29   POPE H2R  HAL2           0.09         1.008       0
   17290 MEMB 29   POPE H2S  HAL2           0.09         1.008       0
   17291 MEMB 29   POPE C3   CTL2           0.08        12.011       0
   17292 MEMB 29   POPE HX   HAL2           0.09         1.008       0
   17293 MEMB 29   POPE HY   HAL2           0.09         1.008       0
   17294 MEMB 29   POPE O31  OSL           -0.49       15.9994       0
   17295 MEMB 29   POPE C31  CL              0.9        12.011       0
   17296 MEMB 29   POPE O32  OBL           -0.63       15.9994       0
   17297 MEMB 29   POPE C32  CTL2          -0.22        12.011       0
   17298 MEMB 29   POPE H2X  HAL2           0.09         1.008       0
   17299 MEMB 29   POPE H2Y  HAL2           0.09         1.008       0
   17300 MEMB 29   POPE C23  CTL2          -0.18        12.011       0
   17301 MEMB 29   POPE H3R  HAL2           0.09         1.008       0
   17302 MEMB 29   POPE H3S  HAL2           0.09         1.008       0
   17303 MEMB 29   POPE C24  CTL2          -0.18        12.011       0
   17304 MEMB 29   POPE H4R  HAL2           0.09         1.008       0
   17305 MEMB 29   POPE H4S  HAL2           0.09         1.008       0
   17306 MEMB 29   POPE C25  CTL2          -0.18        12.011       0
   17307 MEMB 29   POPE H5R  HAL2           0.09         1.008       0
   17308 MEMB 29   POPE H5S  HAL2           0.09         1.008       0
   17309 MEMB 29   POPE C26  CTL2          -0.18        12.011       0
   17310 MEMB 29   POPE H6R  HAL2           0.09         1.008       0
   17311 MEMB 29   POPE H6S  HAL2           0.09         1.008       0
   17312 MEMB 29   POPE C27  CTL2          -0.18        12.011       0
   17313 MEMB 29   POPE H7R  HAL2           0.09         1.008       0
   17314 MEMB 29   POPE H7S  HAL2           0.09         1.008       0
   17315 MEMB 29   POPE C28  CTL2          -0.18        12.011       0
   17316 MEMB 29   POPE H8R  HAL2           0.09         1.008       0
   17317 MEMB 29   POPE H8S  HAL2           0.09         1.008       0
   17318 MEMB 29   POPE C29  CEL1          -0.15        12.011       0
   17319 MEMB 29   POPE H91  HEL1           0.15         1.008       0
   17320 MEMB 29   POPE C210 CEL1          -0.15        12.011       0
   17321 MEMB 29   POPE H101 HEL1           0.15         1.008       0
   17322 MEMB 29   POPE C211 CTL2          -0.18        12.011       0
   17323 MEMB 29   POPE H11R HAL2           0.09         1.008       0
   17324 MEMB 29   POPE H11S HAL2           0.09         1.008       0
   17325 MEMB 29   POPE C212 CTL2          -0.18        12.011       0
   17326 MEMB 29   POPE H12R HAL2           0.09         1.008       0
   17327 MEMB 29   POPE H12S HAL2           0.09         1.008       0
   17328 MEMB 29   POPE C213 CTL2          -0.18        12.011       0
   17329 MEMB 29   POPE H13R HAL2           0.09         1.008       0
   17330 MEMB 29   POPE H13S HAL2           0.09         1.008       0
   17331 MEMB 29   POPE C214 CTL2          -0.18        12.011       0
   17332 MEMB 29   POPE H14R HAL2           0.09         1.008       0
   17333 MEMB 29   POPE H14S HAL2           0.09         1.008       0
   17334 MEMB 29   POPE C215 CTL2          -0.18        12.011       0
   17335 MEMB 29   POPE H15R HAL2           0.09         1.008       0
   17336 MEMB 29   POPE H15S HAL2           0.09         1.008       0
   17337 MEMB 29   POPE C216 CTL2          -0.18        12.011       0
   17338 MEMB 29   POPE H16R HAL2           0.09         1.008       0
   17339 MEMB 29   POPE H16S HAL2           0.09         1.008       0
   17340 MEMB 29   POPE C217 CTL2          -0.18        12.011       0
   17341 MEMB 29   POPE H17R HAL2           0.09         1.008       0
   17342 MEMB 29   POPE H17S HAL2           0.09         1.008       0
   17343 MEMB 29   POPE C218 CTL3          -0.27        12.011       0
   17344 MEMB 29   POPE H18R HAL3           0.09         1.008       0
   17345 MEMB 29   POPE H18S HAL3           0.09         1.008       0
   17346 MEMB 29   POPE H18T HAL3           0.09         1.008       0
   17347 MEMB 29   POPE C33  CTL2          -0.18        12.011       0
   17348 MEMB 29   POPE H3X  HAL2           0.09         1.008       0
   17349 MEMB 29   POPE H3Y  HAL2           0.09         1.008       0
   17350 MEMB 29   POPE C34  CTL2          -0.18        12.011       0
   17351 MEMB 29   POPE H4X  HAL2           0.09         1.008       0
   17352 MEMB 29   POPE H4Y  HAL2           0.09         1.008       0
   17353 MEMB 29   POPE C35  CTL2          -0.18        12.011       0
   17354 MEMB 29   POPE H5X  HAL2           0.09         1.008       0
   17355 MEMB 29   POPE H5Y  HAL2           0.09         1.008       0
   17356 MEMB 29   POPE C36  CTL2          -0.18        12.011       0
   17357 MEMB 29   POPE H6X  HAL2           0.09         1.008       0
   17358 MEMB 29   POPE H6Y  HAL2           0.09         1.008       0
   17359 MEMB 29   POPE C37  CTL2          -0.18        12.011       0
   17360 MEMB 29   POPE H7X  HAL2           0.09         1.008       0
   17361 MEMB 29   POPE H7Y  HAL2           0.09         1.008       0
   17362 MEMB 29   POPE C38  CTL2          -0.18        12.011       0
   17363 MEMB 29   POPE H8X  HAL2           0.09         1.008       0
   17364 MEMB 29   POPE H8Y  HAL2           0.09         1.008       0
   17365 MEMB 29   POPE C39  CTL2          -0.18        12.011       0
   17366 MEMB 29   POPE H9X  HAL2           0.09         1.008       0
   17367 MEMB 29   POPE H9Y  HAL2           0.09         1.008       0
   17368 MEMB 29   POPE C310 CTL2          -0.18        12.011       0
   17369 MEMB 29   POPE H10X HAL2           0.09         1.008       0
   17370 MEMB 29   POPE H10Y HAL2           0.09         1.008       0
   17371 MEMB 29   POPE C311 CTL2          -0.18        12.011       0
   17372 MEMB 29   POPE H11X HAL2           0.09         1.008       0
   17373 MEMB 29   POPE H11Y HAL2           0.09         1.008       0
   17374 MEMB 29   POPE C312 CTL2          -0.18        12.011       0
   17375 MEMB 29   POPE H12X HAL2           0.09         1.008       0
   17376 MEMB 29   POPE H12Y HAL2           0.09         1.008       0
   17377 MEMB 29   POPE C313 CTL2          -0.18        12.011       0
   17378 MEMB 29   POPE H13X HAL2           0.09         1.008       0
   17379 MEMB 29   POPE H13Y HAL2           0.09         1.008       0
   17380 MEMB 29   POPE C314 CTL2          -0.18        12.011       0
   17381 MEMB 29   POPE H14X HAL2           0.09         1.008       0
   17382 MEMB 29   POPE H14Y HAL2           0.09         1.008       0
   17383 MEMB 29   POPE C315 CTL2          -0.18        12.011       0
   17384 MEMB 29   POPE H15X HAL2           0.09         1.008       0
   17385 MEMB 29   POPE H15Y HAL2           0.09         1.008       0
   17386 MEMB 29   POPE C316 CTL3          -0.27        12.011       0
   17387 MEMB 29   POPE H16X HAL3           0.09         1.008       0
   17388 MEMB 29   POPE H16Y HAL3           0.09         1.008       0
   17389 MEMB 29   POPE H16Z HAL3           0.09         1.008       0
   17390 MEMB 30   POPS N    NH3L           -0.3        14.007       0
   17391 MEMB 30   POPS HN1  HCL            0.33         1.008       0
   17392 MEMB 30   POPS HN2  HCL            0.33         1.008       0
   17393 MEMB 30   POPS HN3  HCL            0.33         1.008       0
   17394 MEMB 30   POPS C12  CTL1           0.21        12.011       0
   17395 MEMB 30   POPS H12A HBL             0.1         1.008       0
   17396 MEMB 30   POPS C13  CCL            0.34        12.011       0
   17397 MEMB 30   POPS O13A OCL           -0.67       15.9994       0
   17398 MEMB 30   POPS O13B OCL           -0.67       15.9994       0
   17399 MEMB 30   POPS C11  CTL2          -0.08        12.011       0
   17400 MEMB 30   POPS H11A HAL2           0.09         1.008       0
   17401 MEMB 30   POPS H11B HAL2           0.09         1.008       0
   17402 MEMB 30   POPS P    PL              1.5        30.974       0
   17403 MEMB 30   POPS O13  O2L           -0.78       15.9994       0
   17404 MEMB 30   POPS O14  O2L           -0.78       15.9994       0
   17405 MEMB 30   POPS O12  OSLP          -0.57       15.9994       0
   17406 MEMB 30   POPS O11  OSLP          -0.57       15.9994       0
   17407 MEMB 30   POPS C1   CTL2          -0.08        12.011       0
   17408 MEMB 30   POPS HA   HAL2           0.09         1.008       0
   17409 MEMB 30   POPS HB   HAL2           0.09         1.008       0
   17410 MEMB 30   POPS C2   CTL1           0.17        12.011       0
   17411 MEMB 30   POPS HS   HAL1           0.09         1.008       0
   17412 MEMB 30   POPS O21  OSL           -0.49       15.9994       0
   17413 MEMB 30   POPS C21  CL              0.9        12.011       0
   17414 MEMB 30   POPS O22  OBL           -0.63       15.9994       0
   17415 MEMB 30   POPS C22  CTL2          -0.22        12.011       0
   17416 MEMB 30   POPS H2R  HAL2           0.09         1.008       0
   17417 MEMB 30   POPS H2S  HAL2           0.09         1.008       0
   17418 MEMB 30   POPS C3   CTL2           0.08        12.011       0
   17419 MEMB 30   POPS HX   HAL2           0.09         1.008       0
   17420 MEMB 30   POPS HY   HAL2           0.09         1.008       0
   17421 MEMB 30   POPS O31  OSL           -0.49       15.9994       0
   17422 MEMB 30   POPS C31  CL              0.9        12.011       0
   17423 MEMB 30   POPS O32  OBL           -0.63       15.9994       0
   17424 MEMB 30   POPS C32  CTL2          -0.22        12.011       0
   17425 MEMB 30   POPS H2X  HAL2           0.09         1.008       0
   17426 MEMB 30   POPS H2Y  HAL2           0.09         1.008       0
   17427 MEMB 30   POPS C23  CTL2          -0.18        12.011       0
   17428 MEMB 30   POPS H3R  HAL2           0.09         1.008       0
   17429 MEMB 30   POPS H3S  HAL2           0.09         1.008       0
   17430 MEMB 30   POPS C24  CTL2          -0.18        12.011       0
   17431 MEMB 30   POPS H4R  HAL2           0.09         1.008       0
   17432 MEMB 30   POPS H4S  HAL2           0.09         1.008       0
   17433 MEMB 30   POPS C25  CTL2          -0.18        12.011       0
   17434 MEMB 30   POPS H5R  HAL2           0.09         1.008       0
   17435 MEMB 30   POPS H5S  HAL2           0.09         1.008       0
   17436 MEMB 30   POPS C26  CTL2          -0.18        12.011       0
   17437 MEMB 30   POPS H6R  HAL2           0.09         1.008       0
   17438 MEMB 30   POPS H6S  HAL2           0.09         1.008       0
   17439 MEMB 30   POPS C27  CTL2          -0.18        12.011       0
   17440 MEMB 30   POPS H7R  HAL2           0.09         1.008       0
   17441 MEMB 30   POPS H7S  HAL2           0.09         1.008       0
   17442 MEMB 30   POPS C28  CTL2          -0.18        12.011       0
   17443 MEMB 30   POPS H8R  HAL2           0.09         1.008       0
   17444 MEMB 30   POPS H8S  HAL2           0.09         1.008       0
   17445 MEMB 30   POPS C29  CEL1          -0.15        12.011       0
   17446 MEMB 30   POPS H91  HEL1           0.15         1.008       0
   17447 MEMB 30   POPS C210 CEL1          -0.15        12.011       0
   17448 MEMB 30   POPS H101 HEL1           0.15         1.008       0
   17449 MEMB 30   POPS C211 CTL2          -0.18        12.011       0
   17450 MEMB 30   POPS H11R HAL2           0.09         1.008       0
   17451 MEMB 30   POPS H11S HAL2           0.09         1.008       0
   17452 MEMB 30   POPS C212 CTL2          -0.18        12.011       0
   17453 MEMB 30   POPS H12R HAL2           0.09         1.008       0
   17454 MEMB 30   POPS H12S HAL2           0.09         1.008       0
   17455 MEMB 30   POPS C213 CTL2          -0.18        12.011       0
   17456 MEMB 30   POPS H13R HAL2           0.09         1.008       0
   17457 MEMB 30   POPS H13S HAL2           0.09         1.008       0
   17458 MEMB 30   POPS C214 CTL2          -0.18        12.011       0
   17459 MEMB 30   POPS H14R HAL2           0.09         1.008       0
   17460 MEMB 30   POPS H14S HAL2           0.09         1.008       0
   17461 MEMB 30   POPS C215 CTL2          -0.18        12.011       0
   17462 MEMB 30   POPS H15R HAL2           0.09         1.008       0
   17463 MEMB 30   POPS H15S HAL2           0.09         1.008       0
   17464 MEMB 30   POPS C216 CTL2          -0.18        12.011       0
   17465 MEMB 30   POPS H16R HAL2           0.09         1.008       0
   17466 MEMB 30   POPS H16S HAL2           0.09         1.008       0
   17467 MEMB 30   POPS C217 CTL2          -0.18        12.011       0
   17468 MEMB 30   POPS H17R HAL2           0.09         1.008       0
   17469 MEMB 30   POPS H17S HAL2           0.09         1.008       0
   17470 MEMB 30   POPS C218 CTL3          -0.27        12.011       0
   17471 MEMB 30   POPS H18R HAL3           0.09         1.008       0
   17472 MEMB 30   POPS H18S HAL3           0.09         1.008       0
   17473 MEMB 30   POPS H18T HAL3           0.09         1.008       0
   17474 MEMB 30   POPS C33  CTL2          -0.18        12.011       0
   17475 MEMB 30   POPS H3X  HAL2           0.09         1.008       0
   17476 MEMB 30   POPS H3Y  HAL2           0.09         1.008       0
   17477 MEMB 30   POPS C34  CTL2          -0.18        12.011       0
   17478 MEMB 30   POPS H4X  HAL2           0.09         1.008       0
   17479 MEMB 30   POPS H4Y  HAL2           0.09         1.008       0
   17480 MEMB 30   POPS C35  CTL2          -0.18        12.011       0
   17481 MEMB 30   POPS H5X  HAL2           0.09         1.008       0
   17482 MEMB 30   POPS H5Y  HAL2           0.09         1.008       0
   17483 MEMB 30   POPS C36  CTL2          -0.18        12.011       0
   17484 MEMB 30   POPS H6X  HAL2           0.09         1.008       0
   17485 MEMB 30   POPS H6Y  HAL2           0.09         1.008       0
   17486 MEMB 30   POPS C37  CTL2          -0.18        12.011       0
   17487 MEMB 30   POPS H7X  HAL2           0.09         1.008       0
   17488 MEMB 30   POPS H7Y  HAL2           0.09         1.008       0
   17489 MEMB 30   POPS C38  CTL2          -0.18        12.011       0
   17490 MEMB 30   POPS H8X  HAL2           0.09         1.008       0
   17491 MEMB 30   POPS H8Y  HAL2           0.09         1.008       0
   17492 MEMB 30   POPS C39  CTL2          -0.18        12.011       0
   17493 MEMB 30   POPS H9X  HAL2           0.09         1.008       0
   17494 MEMB 30   POPS H9Y  HAL2           0.09         1.008       0
   17495 MEMB 30   POPS C310 CTL2          -0.18        12.011       0
   17496 MEMB 30   POPS H10X HAL2           0.09         1.008       0
   17497 MEMB 30   POPS H10Y HAL2           0.09         1.008       0
   17498 MEMB 30   POPS C311 CTL2          -0.18        12.011       0
   17499 MEMB 30   POPS H11X HAL2           0.09         1.008       0
   17500 MEMB 30   POPS H11Y HAL2           0.09         1.008       0
   17501 MEMB 30   POPS C312 CTL2          -0.18        12.011       0
   17502 MEMB 30   POPS H12X HAL2           0.09         1.008       0
   17503 MEMB 30   POPS H12Y HAL2           0.09         1.008       0
   17504 MEMB 30   POPS C313 CTL2          -0.18        12.011       0
   17505 MEMB 30   POPS H13X HAL2           0.09         1.008       0
   17506 MEMB 30   POPS H13Y HAL2           0.09         1.008       0
   17507 MEMB 30   POPS C314 CTL2          -0.18        12.011       0
   17508 MEMB 30   POPS H14X HAL2           0.09         1.008       0
   17509 MEMB 30   POPS H14Y HAL2           0.09         1.008       0
   17510 MEMB 30   POPS C315 CTL2          -0.18        12.011       0
   17511 MEMB 30   POPS H15X HAL2           0.09         1.008       0
   17512 MEMB 30   POPS H15Y HAL2           0.09         1.008       0
   17513 MEMB 30   POPS C316 CTL3          -0.27        12.011       0
   17514 MEMB 30   POPS H16X HAL3           0.09         1.008       0
   17515 MEMB 30   POPS H16Y HAL3           0.09         1.008       0
   17516 MEMB 30   POPS H16Z HAL3           0.09         1.008       0
   17517 MEMB 31   POPC N    NTL            -0.6        14.007       0
   17518 MEMB 31   POPC C12  CTL2           -0.1        12.011       0
   17519 MEMB 31   POPC H12A HL             0.25         1.008       0
   17520 MEMB 31   POPC H12B HL             0.25         1.008       0
   17521 MEMB 31   POPC C13  CTL5          -0.35        12.011       0
   17522 MEMB 31   POPC H13A HL             0.25         1.008       0
   17523 MEMB 31   POPC H13B HL             0.25         1.008       0
   17524 MEMB 31   POPC H13C HL             0.25         1.008       0
   17525 MEMB 31   POPC C14  CTL5          -0.35        12.011       0
   17526 MEMB 31   POPC H14A HL             0.25         1.008       0
   17527 MEMB 31   POPC H14B HL             0.25         1.008       0
   17528 MEMB 31   POPC H14C HL             0.25         1.008       0
   17529 MEMB 31   POPC C15  CTL5          -0.35        12.011       0
   17530 MEMB 31   POPC H15A HL             0.25         1.008       0
   17531 MEMB 31   POPC H15B HL             0.25         1.008       0
   17532 MEMB 31   POPC H15C HL             0.25         1.008       0
   17533 MEMB 31   POPC C11  CTL2          -0.08        12.011       0
   17534 MEMB 31   POPC H11A HAL2           0.09         1.008       0
   17535 MEMB 31   POPC H11B HAL2           0.09         1.008       0
   17536 MEMB 31   POPC P    PL              1.5        30.974       0
   17537 MEMB 31   POPC O13  O2L           -0.78       15.9994       0
   17538 MEMB 31   POPC O14  O2L           -0.78       15.9994       0
   17539 MEMB 31   POPC O12  OSLP          -0.57       15.9994       0
   17540 MEMB 31   POPC O11  OSLP          -0.57       15.9994       0
   17541 MEMB 31   POPC C1   CTL2          -0.08        12.011       0
   17542 MEMB 31   POPC HA   HAL2           0.09         1.008       0
   17543 MEMB 31   POPC HB   HAL2           0.09         1.008       0
   17544 MEMB 31   POPC C2   CTL1           0.17        12.011       0
   17545 MEMB 31   POPC HS   HAL1           0.09         1.008       0
   17546 MEMB 31   POPC O21  OSL           -0.49       15.9994       0
   17547 MEMB 31   POPC C21  CL              0.9        12.011       0
   17548 MEMB 31   POPC O22  OBL           -0.63       15.9994       0
   17549 MEMB 31   POPC C22  CTL2          -0.22        12.011       0
   17550 MEMB 31   POPC H2R  HAL2           0.09         1.008       0
   17551 MEMB 31   POPC H2S  HAL2           0.09         1.008       0
   17552 MEMB 31   POPC C3   CTL2           0.08        12.011       0
   17553 MEMB 31   POPC HX   HAL2           0.09         1.008       0
   17554 MEMB 31   POPC HY   HAL2           0.09         1.008       0
   17555 MEMB 31   POPC O31  OSL           -0.49       15.9994       0
   17556 MEMB 31   POPC C31  CL              0.9        12.011       0
   17557 MEMB 31   POPC O32  OBL           -0.63       15.9994       0
   17558 MEMB 31   POPC C32  CTL2          -0.22        12.011       0
   17559 MEMB 31   POPC H2X  HAL2           0.09         1.008       0
   17560 MEMB 31   POPC H2Y  HAL2           0.09         1.008       0
   17561 MEMB 31   POPC C23  CTL2          -0.18        12.011       0
   17562 MEMB 31   POPC H3R  HAL2           0.09         1.008       0
   17563 MEMB 31   POPC H3S  HAL2           0.09         1.008       0
   17564 MEMB 31   POPC C24  CTL2          -0.18        12.011       0
   17565 MEMB 31   POPC H4R  HAL2           0.09         1.008       0
   17566 MEMB 31   POPC H4S  HAL2           0.09         1.008       0
   17567 MEMB 31   POPC C25  CTL2          -0.18        12.011       0
   17568 MEMB 31   POPC H5R  HAL2           0.09         1.008       0
   17569 MEMB 31   POPC H5S  HAL2           0.09         1.008       0
   17570 MEMB 31   POPC C26  CTL2          -0.18        12.011       0
   17571 MEMB 31   POPC H6R  HAL2           0.09         1.008       0
   17572 MEMB 31   POPC H6S  HAL2           0.09         1.008       0
   17573 MEMB 31   POPC C27  CTL2          -0.18        12.011       0
   17574 MEMB 31   POPC H7R  HAL2           0.09         1.008       0
   17575 MEMB 31   POPC H7S  HAL2           0.09         1.008       0
   17576 MEMB 31   POPC C28  CTL2          -0.18        12.011       0
   17577 MEMB 31   POPC H8R  HAL2           0.09         1.008       0
   17578 MEMB 31   POPC H8S  HAL2           0.09         1.008       0
   17579 MEMB 31   POPC C29  CEL1          -0.15        12.011       0
   17580 MEMB 31   POPC H91  HEL1           0.15         1.008       0
   17581 MEMB 31   POPC C210 CEL1          -0.15        12.011       0
   17582 MEMB 31   POPC H101 HEL1           0.15         1.008       0
   17583 MEMB 31   POPC C211 CTL2          -0.18        12.011       0
   17584 MEMB 31   POPC H11R HAL2           0.09         1.008       0
   17585 MEMB 31   POPC H11S HAL2           0.09         1.008       0
   17586 MEMB 31   POPC C212 CTL2          -0.18        12.011       0
   17587 MEMB 31   POPC H12R HAL2           0.09         1.008       0
   17588 MEMB 31   POPC H12S HAL2           0.09         1.008       0
   17589 MEMB 31   POPC C213 CTL2          -0.18        12.011       0
   17590 MEMB 31   POPC H13R HAL2           0.09         1.008       0
   17591 MEMB 31   POPC H13S HAL2           0.09         1.008       0
   17592 MEMB 31   POPC C214 CTL2          -0.18        12.011       0
   17593 MEMB 31   POPC H14R HAL2           0.09         1.008       0
   17594 MEMB 31   POPC H14S HAL2           0.09         1.008       0
   17595 MEMB 31   POPC C215 CTL2          -0.18        12.011       0
   17596 MEMB 31   POPC H15R HAL2           0.09         1.008       0
   17597 MEMB 31   POPC H15S HAL2           0.09         1.008       0
   17598 MEMB 31   POPC C216 CTL2          -0.18        12.011       0
   17599 MEMB 31   POPC H16R HAL2           0.09         1.008       0
   17600 MEMB 31   POPC H16S HAL2           0.09         1.008       0
   17601 MEMB 31   POPC C217 CTL2          -0.18        12.011       0
   17602 MEMB 31   POPC H17R HAL2           0.09         1.008       0
   17603 MEMB 31   POPC H17S HAL2           0.09         1.008       0
   17604 MEMB 31   POPC C218 CTL3          -0.27        12.011       0
   17605 MEMB 31   POPC H18R HAL3           0.09         1.008       0
   17606 MEMB 31   POPC H18S HAL3           0.09         1.008       0
   17607 MEMB 31   POPC H18T HAL3           0.09         1.008       0
   17608 MEMB 31   POPC C33  CTL2          -0.18        12.011       0
   17609 MEMB 31   POPC H3X  HAL2           0.09         1.008       0
   17610 MEMB 31   POPC H3Y  HAL2           0.09         1.008       0
   17611 MEMB 31   POPC C34  CTL2          -0.18        12.011       0
   17612 MEMB 31   POPC H4X  HAL2           0.09         1.008       0
   17613 MEMB 31   POPC H4Y  HAL2           0.09         1.008       0
   17614 MEMB 31   POPC C35  CTL2          -0.18        12.011       0
   17615 MEMB 31   POPC H5X  HAL2           0.09         1.008       0
   17616 MEMB 31   POPC H5Y  HAL2           0.09         1.008       0
   17617 MEMB 31   POPC C36  CTL2          -0.18        12.011       0
   17618 MEMB 31   POPC H6X  HAL2           0.09         1.008       0
   17619 MEMB 31   POPC H6Y  HAL2           0.09         1.008       0
   17620 MEMB 31   POPC C37  CTL2          -0.18        12.011       0
   17621 MEMB 31   POPC H7X  HAL2           0.09         1.008       0
   17622 MEMB 31   POPC H7Y  HAL2           0.09         1.008       0
   17623 MEMB 31   POPC C38  CTL2          -0.18        12.011       0
   17624 MEMB 31   POPC H8X  HAL2           0.09         1.008       0
   17625 MEMB 31   POPC H8Y  HAL2           0.09         1.008       0
   17626 MEMB 31   POPC C39  CTL2          -0.18        12.011       0
   17627 MEMB 31   POPC H9X  HAL2           0.09         1.008       0
   17628 MEMB 31   POPC H9Y  HAL2           0.09         1.008       0
   17629 MEMB 31   POPC C310 CTL2          -0.18        12.011       0
   17630 MEMB 31   POPC H10X HAL2           0.09         1.008       0
   17631 MEMB 31   POPC H10Y HAL2           0.09         1.008       0
   17632 MEMB 31   POPC C311 CTL2          -0.18        12.011       0
   17633 MEMB 31   POPC H11X HAL2           0.09         1.008       0
   17634 MEMB 31   POPC H11Y HAL2           0.09         1.008       0
   17635 MEMB 31   POPC C312 CTL2          -0.18        12.011       0
   17636 MEMB 31   POPC H12X HAL2           0.09         1.008       0
   17637 MEMB 31   POPC H12Y HAL2           0.09         1.008       0
   17638 MEMB 31   POPC C313 CTL2          -0.18        12.011       0
   17639 MEMB 31   POPC H13X HAL2           0.09         1.008       0
   17640 MEMB 31   POPC H13Y HAL2           0.09         1.008       0
   17641 MEMB 31   POPC C314 CTL2          -0.18        12.011       0
   17642 MEMB 31   POPC H14X HAL2           0.09         1.008       0
   17643 MEMB 31   POPC H14Y HAL2           0.09         1.008       0
   17644 MEMB 31   POPC C315 CTL2          -0.18        12.011       0
   17645 MEMB 31   POPC H15X HAL2           0.09         1.008       0
   17646 MEMB 31   POPC H15Y HAL2           0.09         1.008       0
   17647 MEMB 31   POPC C316 CTL3          -0.27        12.011       0
   17648 MEMB 31   POPC H16X HAL3           0.09         1.008       0
   17649 MEMB 31   POPC H16Y HAL3           0.09         1.008       0
   17650 MEMB 31   POPC H16Z HAL3           0.09         1.008       0
   17651 MEMB 32   POPE N    NH3L           -0.3        14.007       0
   17652 MEMB 32   POPE HN1  HCL            0.33         1.008       0
   17653 MEMB 32   POPE HN2  HCL            0.33         1.008       0
   17654 MEMB 32   POPE HN3  HCL            0.33         1.008       0
   17655 MEMB 32   POPE C12  CTL2           0.13        12.011       0
   17656 MEMB 32   POPE H12A HAL2           0.09         1.008       0
   17657 MEMB 32   POPE H12B HAL2           0.09         1.008       0
   17658 MEMB 32   POPE C11  CTL2          -0.08        12.011       0
   17659 MEMB 32   POPE H11A HAL2           0.09         1.008       0
   17660 MEMB 32   POPE H11B HAL2           0.09         1.008       0
   17661 MEMB 32   POPE P    PL              1.5        30.974       0
   17662 MEMB 32   POPE O13  O2L           -0.78       15.9994       0
   17663 MEMB 32   POPE O14  O2L           -0.78       15.9994       0
   17664 MEMB 32   POPE O11  OSLP          -0.57       15.9994       0
   17665 MEMB 32   POPE O12  OSLP          -0.57       15.9994       0
   17666 MEMB 32   POPE C1   CTL2          -0.08        12.011       0
   17667 MEMB 32   POPE HA   HAL2           0.09         1.008       0
   17668 MEMB 32   POPE HB   HAL2           0.09         1.008       0
   17669 MEMB 32   POPE C2   CTL1           0.17        12.011       0
   17670 MEMB 32   POPE HS   HAL1           0.09         1.008       0
   17671 MEMB 32   POPE O21  OSL           -0.49       15.9994       0
   17672 MEMB 32   POPE C21  CL              0.9        12.011       0
   17673 MEMB 32   POPE O22  OBL           -0.63       15.9994       0
   17674 MEMB 32   POPE C22  CTL2          -0.22        12.011       0
   17675 MEMB 32   POPE H2R  HAL2           0.09         1.008       0
   17676 MEMB 32   POPE H2S  HAL2           0.09         1.008       0
   17677 MEMB 32   POPE C3   CTL2           0.08        12.011       0
   17678 MEMB 32   POPE HX   HAL2           0.09         1.008       0
   17679 MEMB 32   POPE HY   HAL2           0.09         1.008       0
   17680 MEMB 32   POPE O31  OSL           -0.49       15.9994       0
   17681 MEMB 32   POPE C31  CL              0.9        12.011       0
   17682 MEMB 32   POPE O32  OBL           -0.63       15.9994       0
   17683 MEMB 32   POPE C32  CTL2          -0.22        12.011       0
   17684 MEMB 32   POPE H2X  HAL2           0.09         1.008       0
   17685 MEMB 32   POPE H2Y  HAL2           0.09         1.008       0
   17686 MEMB 32   POPE C23  CTL2          -0.18        12.011       0
   17687 MEMB 32   POPE H3R  HAL2           0.09         1.008       0
   17688 MEMB 32   POPE H3S  HAL2           0.09         1.008       0
   17689 MEMB 32   POPE C24  CTL2          -0.18        12.011       0
   17690 MEMB 32   POPE H4R  HAL2           0.09         1.008       0
   17691 MEMB 32   POPE H4S  HAL2           0.09         1.008       0
   17692 MEMB 32   POPE C25  CTL2          -0.18        12.011       0
   17693 MEMB 32   POPE H5R  HAL2           0.09         1.008       0
   17694 MEMB 32   POPE H5S  HAL2           0.09         1.008       0
   17695 MEMB 32   POPE C26  CTL2          -0.18        12.011       0
   17696 MEMB 32   POPE H6R  HAL2           0.09         1.008       0
   17697 MEMB 32   POPE H6S  HAL2           0.09         1.008       0
   17698 MEMB 32   POPE C27  CTL2          -0.18        12.011       0
   17699 MEMB 32   POPE H7R  HAL2           0.09         1.008       0
   17700 MEMB 32   POPE H7S  HAL2           0.09         1.008       0
   17701 MEMB 32   POPE C28  CTL2          -0.18        12.011       0
   17702 MEMB 32   POPE H8R  HAL2           0.09         1.008       0
   17703 MEMB 32   POPE H8S  HAL2           0.09         1.008       0
   17704 MEMB 32   POPE C29  CEL1          -0.15        12.011       0
   17705 MEMB 32   POPE H91  HEL1           0.15         1.008       0
   17706 MEMB 32   POPE C210 CEL1          -0.15        12.011       0
   17707 MEMB 32   POPE H101 HEL1           0.15         1.008       0
   17708 MEMB 32   POPE C211 CTL2          -0.18        12.011       0
   17709 MEMB 32   POPE H11R HAL2           0.09         1.008       0
   17710 MEMB 32   POPE H11S HAL2           0.09         1.008       0
   17711 MEMB 32   POPE C212 CTL2          -0.18        12.011       0
   17712 MEMB 32   POPE H12R HAL2           0.09         1.008       0
   17713 MEMB 32   POPE H12S HAL2           0.09         1.008       0
   17714 MEMB 32   POPE C213 CTL2          -0.18        12.011       0
   17715 MEMB 32   POPE H13R HAL2           0.09         1.008       0
   17716 MEMB 32   POPE H13S HAL2           0.09         1.008       0
   17717 MEMB 32   POPE C214 CTL2          -0.18        12.011       0
   17718 MEMB 32   POPE H14R HAL2           0.09         1.008       0
   17719 MEMB 32   POPE H14S HAL2           0.09         1.008       0
   17720 MEMB 32   POPE C215 CTL2          -0.18        12.011       0
   17721 MEMB 32   POPE H15R HAL2           0.09         1.008       0
   17722 MEMB 32   POPE H15S HAL2           0.09         1.008       0
   17723 MEMB 32   POPE C216 CTL2          -0.18        12.011       0
   17724 MEMB 32   POPE H16R HAL2           0.09         1.008       0
   17725 MEMB 32   POPE H16S HAL2           0.09         1.008       0
   17726 MEMB 32   POPE C217 CTL2          -0.18        12.011       0
   17727 MEMB 32   POPE H17R HAL2           0.09         1.008       0
   17728 MEMB 32   POPE H17S HAL2           0.09         1.008       0
   17729 MEMB 32   POPE C218 CTL3          -0.27        12.011       0
   17730 MEMB 32   POPE H18R HAL3           0.09         1.008       0
   17731 MEMB 32   POPE H18S HAL3           0.09         1.008       0
   17732 MEMB 32   POPE H18T HAL3           0.09         1.008       0
   17733 MEMB 32   POPE C33  CTL2          -0.18        12.011       0
   17734 MEMB 32   POPE H3X  HAL2           0.09         1.008       0
   17735 MEMB 32   POPE H3Y  HAL2           0.09         1.008       0
   17736 MEMB 32   POPE C34  CTL2          -0.18        12.011       0
   17737 MEMB 32   POPE H4X  HAL2           0.09         1.008       0
   17738 MEMB 32   POPE H4Y  HAL2           0.09         1.008       0
   17739 MEMB 32   POPE C35  CTL2          -0.18        12.011       0
   17740 MEMB 32   POPE H5X  HAL2           0.09         1.008       0
   17741 MEMB 32   POPE H5Y  HAL2           0.09         1.008       0
   17742 MEMB 32   POPE C36  CTL2          -0.18        12.011       0
   17743 MEMB 32   POPE H6X  HAL2           0.09         1.008       0
   17744 MEMB 32   POPE H6Y  HAL2           0.09         1.008       0
   17745 MEMB 32   POPE C37  CTL2          -0.18        12.011       0
   17746 MEMB 32   POPE H7X  HAL2           0.09         1.008       0
   17747 MEMB 32   POPE H7Y  HAL2           0.09         1.008       0
   17748 MEMB 32   POPE C38  CTL2          -0.18        12.011       0
   17749 MEMB 32   POPE H8X  HAL2           0.09         1.008       0
   17750 MEMB 32   POPE H8Y  HAL2           0.09         1.008       0
   17751 MEMB 32   POPE C39  CTL2          -0.18        12.011       0
   17752 MEMB 32   POPE H9X  HAL2           0.09         1.008       0
   17753 MEMB 32   POPE H9Y  HAL2           0.09         1.008       0
   17754 MEMB 32   POPE C310 CTL2          -0.18        12.011       0
   17755 MEMB 32   POPE H10X HAL2           0.09         1.008       0
   17756 MEMB 32   POPE H10Y HAL2           0.09         1.008       0
   17757 MEMB 32   POPE C311 CTL2          -0.18        12.011       0
   17758 MEMB 32   POPE H11X HAL2           0.09         1.008       0
   17759 MEMB 32   POPE H11Y HAL2           0.09         1.008       0
   17760 MEMB 32   POPE C312 CTL2          -0.18        12.011       0
   17761 MEMB 32   POPE H12X HAL2           0.09         1.008       0
   17762 MEMB 32   POPE H12Y HAL2           0.09         1.008       0
   17763 MEMB 32   POPE C313 CTL2          -0.18        12.011       0
   17764 MEMB 32   POPE H13X HAL2           0.09         1.008       0
   17765 MEMB 32   POPE H13Y HAL2           0.09         1.008       0
   17766 MEMB 32   POPE C314 CTL2          -0.18        12.011       0
   17767 MEMB 32   POPE H14X HAL2           0.09         1.008       0
   17768 MEMB 32   POPE H14Y HAL2           0.09         1.008       0
   17769 MEMB 32   POPE C315 CTL2          -0.18        12.011       0
   17770 MEMB 32   POPE H15X HAL2           0.09         1.008       0
   17771 MEMB 32   POPE H15Y HAL2           0.09         1.008       0
   17772 MEMB 32   POPE C316 CTL3          -0.27        12.011       0
   17773 MEMB 32   POPE H16X HAL3           0.09         1.008       0
   17774 MEMB 32   POPE H16Y HAL3           0.09         1.008       0
   17775 MEMB 32   POPE H16Z HAL3           0.09         1.008       0
   17776 MEMB 33   POPC N    NTL            -0.6        14.007       0
   17777 MEMB 33   POPC C12  CTL2           -0.1        12.011       0
   17778 MEMB 33   POPC H12A HL             0.25         1.008       0
   17779 MEMB 33   POPC H12B HL             0.25         1.008       0
   17780 MEMB 33   POPC C13  CTL5          -0.35        12.011       0
   17781 MEMB 33   POPC H13A HL             0.25         1.008       0
   17782 MEMB 33   POPC H13B HL             0.25         1.008       0
   17783 MEMB 33   POPC H13C HL             0.25         1.008       0
   17784 MEMB 33   POPC C14  CTL5          -0.35        12.011       0
   17785 MEMB 33   POPC H14A HL             0.25         1.008       0
   17786 MEMB 33   POPC H14B HL             0.25         1.008       0
   17787 MEMB 33   POPC H14C HL             0.25         1.008       0
   17788 MEMB 33   POPC C15  CTL5          -0.35        12.011       0
   17789 MEMB 33   POPC H15A HL             0.25         1.008       0
   17790 MEMB 33   POPC H15B HL             0.25         1.008       0
   17791 MEMB 33   POPC H15C HL             0.25         1.008       0
   17792 MEMB 33   POPC C11  CTL2          -0.08        12.011       0
   17793 MEMB 33   POPC H11A HAL2           0.09         1.008       0
   17794 MEMB 33   POPC H11B HAL2           0.09         1.008       0
   17795 MEMB 33   POPC P    PL              1.5        30.974       0
   17796 MEMB 33   POPC O13  O2L           -0.78       15.9994       0
   17797 MEMB 33   POPC O14  O2L           -0.78       15.9994       0
   17798 MEMB 33   POPC O12  OSLP          -0.57       15.9994       0
   17799 MEMB 33   POPC O11  OSLP          -0.57       15.9994       0
   17800 MEMB 33   POPC C1   CTL2          -0.08        12.011       0
   17801 MEMB 33   POPC HA   HAL2           0.09         1.008       0
   17802 MEMB 33   POPC HB   HAL2           0.09         1.008       0
   17803 MEMB 33   POPC C2   CTL1           0.17        12.011       0
   17804 MEMB 33   POPC HS   HAL1           0.09         1.008       0
   17805 MEMB 33   POPC O21  OSL           -0.49       15.9994       0
   17806 MEMB 33   POPC C21  CL              0.9        12.011       0
   17807 MEMB 33   POPC O22  OBL           -0.63       15.9994       0
   17808 MEMB 33   POPC C22  CTL2          -0.22        12.011       0
   17809 MEMB 33   POPC H2R  HAL2           0.09         1.008       0
   17810 MEMB 33   POPC H2S  HAL2           0.09         1.008       0
   17811 MEMB 33   POPC C3   CTL2           0.08        12.011       0
   17812 MEMB 33   POPC HX   HAL2           0.09         1.008       0
   17813 MEMB 33   POPC HY   HAL2           0.09         1.008       0
   17814 MEMB 33   POPC O31  OSL           -0.49       15.9994       0
   17815 MEMB 33   POPC C31  CL              0.9        12.011       0
   17816 MEMB 33   POPC O32  OBL           -0.63       15.9994       0
   17817 MEMB 33   POPC C32  CTL2          -0.22        12.011       0
   17818 MEMB 33   POPC H2X  HAL2           0.09         1.008       0
   17819 MEMB 33   POPC H2Y  HAL2           0.09         1.008       0
   17820 MEMB 33   POPC C23  CTL2          -0.18        12.011       0
   17821 MEMB 33   POPC H3R  HAL2           0.09         1.008       0
   17822 MEMB 33   POPC H3S  HAL2           0.09         1.008       0
   17823 MEMB 33   POPC C24  CTL2          -0.18        12.011       0
   17824 MEMB 33   POPC H4R  HAL2           0.09         1.008       0
   17825 MEMB 33   POPC H4S  HAL2           0.09         1.008       0
   17826 MEMB 33   POPC C25  CTL2          -0.18        12.011       0
   17827 MEMB 33   POPC H5R  HAL2           0.09         1.008       0
   17828 MEMB 33   POPC H5S  HAL2           0.09         1.008       0
   17829 MEMB 33   POPC C26  CTL2          -0.18        12.011       0
   17830 MEMB 33   POPC H6R  HAL2           0.09         1.008       0
   17831 MEMB 33   POPC H6S  HAL2           0.09         1.008       0
   17832 MEMB 33   POPC C27  CTL2          -0.18        12.011       0
   17833 MEMB 33   POPC H7R  HAL2           0.09         1.008       0
   17834 MEMB 33   POPC H7S  HAL2           0.09         1.008       0
   17835 MEMB 33   POPC C28  CTL2          -0.18        12.011       0
   17836 MEMB 33   POPC H8R  HAL2           0.09         1.008       0
   17837 MEMB 33   POPC H8S  HAL2           0.09         1.008       0
   17838 MEMB 33   POPC C29  CEL1          -0.15        12.011       0
   17839 MEMB 33   POPC H91  HEL1           0.15         1.008       0
   17840 MEMB 33   POPC C210 CEL1          -0.15        12.011       0
   17841 MEMB 33   POPC H101 HEL1           0.15         1.008       0
   17842 MEMB 33   POPC C211 CTL2          -0.18        12.011       0
   17843 MEMB 33   POPC H11R HAL2           0.09         1.008       0
   17844 MEMB 33   POPC H11S HAL2           0.09         1.008       0
   17845 MEMB 33   POPC C212 CTL2          -0.18        12.011       0
   17846 MEMB 33   POPC H12R HAL2           0.09         1.008       0
   17847 MEMB 33   POPC H12S HAL2           0.09         1.008       0
   17848 MEMB 33   POPC C213 CTL2          -0.18        12.011       0
   17849 MEMB 33   POPC H13R HAL2           0.09         1.008       0
   17850 MEMB 33   POPC H13S HAL2           0.09         1.008       0
   17851 MEMB 33   POPC C214 CTL2          -0.18        12.011       0
   17852 MEMB 33   POPC H14R HAL2           0.09         1.008       0
   17853 MEMB 33   POPC H14S HAL2           0.09         1.008       0
   17854 MEMB 33   POPC C215 CTL2          -0.18        12.011       0
   17855 MEMB 33   POPC H15R HAL2           0.09         1.008       0
   17856 MEMB 33   POPC H15S HAL2           0.09         1.008       0
   17857 MEMB 33   POPC C216 CTL2          -0.18        12.011       0
   17858 MEMB 33   POPC H16R HAL2           0.09         1.008       0
   17859 MEMB 33   POPC H16S HAL2           0.09         1.008       0
   17860 MEMB 33   POPC C217 CTL2          -0.18        12.011       0
   17861 MEMB 33   POPC H17R HAL2           0.09         1.008       0
   17862 MEMB 33   POPC H17S HAL2           0.09         1.008       0
   17863 MEMB 33   POPC C218 CTL3          -0.27        12.011       0
   17864 MEMB 33   POPC H18R HAL3           0.09         1.008       0
   17865 MEMB 33   POPC H18S HAL3           0.09         1.008       0
   17866 MEMB 33   POPC H18T HAL3           0.09         1.008       0
   17867 MEMB 33   POPC C33  CTL2          -0.18        12.011       0
   17868 MEMB 33   POPC H3X  HAL2           0.09         1.008       0
   17869 MEMB 33   POPC H3Y  HAL2           0.09         1.008       0
   17870 MEMB 33   POPC C34  CTL2          -0.18        12.011       0
   17871 MEMB 33   POPC H4X  HAL2           0.09         1.008       0
   17872 MEMB 33   POPC H4Y  HAL2           0.09         1.008       0
   17873 MEMB 33   POPC C35  CTL2          -0.18        12.011       0
   17874 MEMB 33   POPC H5X  HAL2           0.09         1.008       0
   17875 MEMB 33   POPC H5Y  HAL2           0.09         1.008       0
   17876 MEMB 33   POPC C36  CTL2          -0.18        12.011       0
   17877 MEMB 33   POPC H6X  HAL2           0.09         1.008       0
   17878 MEMB 33   POPC H6Y  HAL2           0.09         1.008       0
   17879 MEMB 33   POPC C37  CTL2          -0.18        12.011       0
   17880 MEMB 33   POPC H7X  HAL2           0.09         1.008       0
   17881 MEMB 33   POPC H7Y  HAL2           0.09         1.008       0
   17882 MEMB 33   POPC C38  CTL2          -0.18        12.011       0
   17883 MEMB 33   POPC H8X  HAL2           0.09         1.008       0
   17884 MEMB 33   POPC H8Y  HAL2           0.09         1.008       0
   17885 MEMB 33   POPC C39  CTL2          -0.18        12.011       0
   17886 MEMB 33   POPC H9X  HAL2           0.09         1.008       0
   17887 MEMB 33   POPC H9Y  HAL2           0.09         1.008       0
   17888 MEMB 33   POPC C310 CTL2          -0.18        12.011       0
   17889 MEMB 33   POPC H10X HAL2           0.09         1.008       0
   17890 MEMB 33   POPC H10Y HAL2           0.09         1.008       0
   17891 MEMB 33   POPC C311 CTL2          -0.18        12.011       0
   17892 MEMB 33   POPC H11X HAL2           0.09         1.008       0
   17893 MEMB 33   POPC H11Y HAL2           0.09         1.008       0
   17894 MEMB 33   POPC C312 CTL2          -0.18        12.011       0
   17895 MEMB 33   POPC H12X HAL2           0.09         1.008       0
   17896 MEMB 33   POPC H12Y HAL2           0.09         1.008       0
   17897 MEMB 33   POPC C313 CTL2          -0.18        12.011       0
   17898 MEMB 33   POPC H13X HAL2           0.09         1.008       0
   17899 MEMB 33   POPC H13Y HAL2           0.09         1.008       0
   17900 MEMB 33   POPC C314 CTL2          -0.18        12.011       0
   17901 MEMB 33   POPC H14X HAL2           0.09         1.008       0
   17902 MEMB 33   POPC H14Y HAL2           0.09         1.008       0
   17903 MEMB 33   POPC C315 CTL2          -0.18        12.011       0
   17904 MEMB 33   POPC H15X HAL2           0.09         1.008       0
   17905 MEMB 33   POPC H15Y HAL2           0.09         1.008       0
   17906 MEMB 33   POPC C316 CTL3          -0.27        12.011       0
   17907 MEMB 33   POPC H16X HAL3           0.09         1.008       0
   17908 MEMB 33   POPC H16Y HAL3           0.09         1.008       0
   17909 MEMB 33   POPC H16Z HAL3           0.09         1.008       0
   17910 MEMB 34   POPS N    NH3L           -0.3        14.007       0
   17911 MEMB 34   POPS HN1  HCL            0.33         1.008       0
   17912 MEMB 34   POPS HN2  HCL            0.33         1.008       0
   17913 MEMB 34   POPS HN3  HCL            0.33         1.008       0
   17914 MEMB 34   POPS C12  CTL1           0.21        12.011       0
   17915 MEMB 34   POPS H12A HBL             0.1         1.008       0
   17916 MEMB 34   POPS C13  CCL            0.34        12.011       0
   17917 MEMB 34   POPS O13A OCL           -0.67       15.9994       0
   17918 MEMB 34   POPS O13B OCL           -0.67       15.9994       0
   17919 MEMB 34   POPS C11  CTL2          -0.08        12.011       0
   17920 MEMB 34   POPS H11A HAL2           0.09         1.008       0
   17921 MEMB 34   POPS H11B HAL2           0.09         1.008       0
   17922 MEMB 34   POPS P    PL              1.5        30.974       0
   17923 MEMB 34   POPS O13  O2L           -0.78       15.9994       0
   17924 MEMB 34   POPS O14  O2L           -0.78       15.9994       0
   17925 MEMB 34   POPS O12  OSLP          -0.57       15.9994       0
   17926 MEMB 34   POPS O11  OSLP          -0.57       15.9994       0
   17927 MEMB 34   POPS C1   CTL2          -0.08        12.011       0
   17928 MEMB 34   POPS HA   HAL2           0.09         1.008       0
   17929 MEMB 34   POPS HB   HAL2           0.09         1.008       0
   17930 MEMB 34   POPS C2   CTL1           0.17        12.011       0
   17931 MEMB 34   POPS HS   HAL1           0.09         1.008       0
   17932 MEMB 34   POPS O21  OSL           -0.49       15.9994       0
   17933 MEMB 34   POPS C21  CL              0.9        12.011       0
   17934 MEMB 34   POPS O22  OBL           -0.63       15.9994       0
   17935 MEMB 34   POPS C22  CTL2          -0.22        12.011       0
   17936 MEMB 34   POPS H2R  HAL2           0.09         1.008       0
   17937 MEMB 34   POPS H2S  HAL2           0.09         1.008       0
   17938 MEMB 34   POPS C3   CTL2           0.08        12.011       0
   17939 MEMB 34   POPS HX   HAL2           0.09         1.008       0
   17940 MEMB 34   POPS HY   HAL2           0.09         1.008       0
   17941 MEMB 34   POPS O31  OSL           -0.49       15.9994       0
   17942 MEMB 34   POPS C31  CL              0.9        12.011       0
   17943 MEMB 34   POPS O32  OBL           -0.63       15.9994       0
   17944 MEMB 34   POPS C32  CTL2          -0.22        12.011       0
   17945 MEMB 34   POPS H2X  HAL2           0.09         1.008       0
   17946 MEMB 34   POPS H2Y  HAL2           0.09         1.008       0
   17947 MEMB 34   POPS C23  CTL2          -0.18        12.011       0
   17948 MEMB 34   POPS H3R  HAL2           0.09         1.008       0
   17949 MEMB 34   POPS H3S  HAL2           0.09         1.008       0
   17950 MEMB 34   POPS C24  CTL2          -0.18        12.011       0
   17951 MEMB 34   POPS H4R  HAL2           0.09         1.008       0
   17952 MEMB 34   POPS H4S  HAL2           0.09         1.008       0
   17953 MEMB 34   POPS C25  CTL2          -0.18        12.011       0
   17954 MEMB 34   POPS H5R  HAL2           0.09         1.008       0
   17955 MEMB 34   POPS H5S  HAL2           0.09         1.008       0
   17956 MEMB 34   POPS C26  CTL2          -0.18        12.011       0
   17957 MEMB 34   POPS H6R  HAL2           0.09         1.008       0
   17958 MEMB 34   POPS H6S  HAL2           0.09         1.008       0
   17959 MEMB 34   POPS C27  CTL2          -0.18        12.011       0
   17960 MEMB 34   POPS H7R  HAL2           0.09         1.008       0
   17961 MEMB 34   POPS H7S  HAL2           0.09         1.008       0
   17962 MEMB 34   POPS C28  CTL2          -0.18        12.011       0
   17963 MEMB 34   POPS H8R  HAL2           0.09         1.008       0
   17964 MEMB 34   POPS H8S  HAL2           0.09         1.008       0
   17965 MEMB 34   POPS C29  CEL1          -0.15        12.011       0
   17966 MEMB 34   POPS H91  HEL1           0.15         1.008       0
   17967 MEMB 34   POPS C210 CEL1          -0.15        12.011       0
   17968 MEMB 34   POPS H101 HEL1           0.15         1.008       0
   17969 MEMB 34   POPS C211 CTL2          -0.18        12.011       0
   17970 MEMB 34   POPS H11R HAL2           0.09         1.008       0
   17971 MEMB 34   POPS H11S HAL2           0.09         1.008       0
   17972 MEMB 34   POPS C212 CTL2          -0.18        12.011       0
   17973 MEMB 34   POPS H12R HAL2           0.09         1.008       0
   17974 MEMB 34   POPS H12S HAL2           0.09         1.008       0
   17975 MEMB 34   POPS C213 CTL2          -0.18        12.011       0
   17976 MEMB 34   POPS H13R HAL2           0.09         1.008       0
   17977 MEMB 34   POPS H13S HAL2           0.09         1.008       0
   17978 MEMB 34   POPS C214 CTL2          -0.18        12.011       0
   17979 MEMB 34   POPS H14R HAL2           0.09         1.008       0
   17980 MEMB 34   POPS H14S HAL2           0.09         1.008       0
   17981 MEMB 34   POPS C215 CTL2          -0.18        12.011       0
   17982 MEMB 34   POPS H15R HAL2           0.09         1.008       0
   17983 MEMB 34   POPS H15S HAL2           0.09         1.008       0
   17984 MEMB 34   POPS C216 CTL2          -0.18        12.011       0
   17985 MEMB 34   POPS H16R HAL2           0.09         1.008       0
   17986 MEMB 34   POPS H16S HAL2           0.09         1.008       0
   17987 MEMB 34   POPS C217 CTL2          -0.18        12.011       0
   17988 MEMB 34   POPS H17R HAL2           0.09         1.008       0
   17989 MEMB 34   POPS H17S HAL2           0.09         1.008       0
   17990 MEMB 34   POPS C218 CTL3          -0.27        12.011       0
   17991 MEMB 34   POPS H18R HAL3           0.09         1.008       0
   17992 MEMB 34   POPS H18S HAL3           0.09         1.008       0
   17993 MEMB 34   POPS H18T HAL3           0.09         1.008       0
   17994 MEMB 34   POPS C33  CTL2          -0.18        12.011       0
   17995 MEMB 34   POPS H3X  HAL2           0.09         1.008       0
   17996 MEMB 34   POPS H3Y  HAL2           0.09         1.008       0
   17997 MEMB 34   POPS C34  CTL2          -0.18        12.011       0
   17998 MEMB 34   POPS H4X  HAL2           0.09         1.008       0
   17999 MEMB 34   POPS H4Y  HAL2           0.09         1.008       0
   18000 MEMB 34   POPS C35  CTL2          -0.18        12.011       0
   18001 MEMB 34   POPS H5X  HAL2           0.09         1.008       0
   18002 MEMB 34   POPS H5Y  HAL2           0.09         1.008       0
   18003 MEMB 34   POPS C36  CTL2          -0.18        12.011       0
   18004 MEMB 34   POPS H6X  HAL2           0.09         1.008       0
   18005 MEMB 34   POPS H6Y  HAL2           0.09         1.008       0
   18006 MEMB 34   POPS C37  CTL2          -0.18        12.011       0
   18007 MEMB 34   POPS H7X  HAL2           0.09         1.008       0
   18008 MEMB 34   POPS H7Y  HAL2           0.09         1.008       0
   18009 MEMB 34   POPS C38  CTL2          -0.18        12.011       0
   18010 MEMB 34   POPS H8X  HAL2           0.09         1.008       0
   18011 MEMB 34   POPS H8Y  HAL2           0.09         1.008       0
   18012 MEMB 34   POPS C39  CTL2          -0.18        12.011       0
   18013 MEMB 34   POPS H9X  HAL2           0.09         1.008       0
   18014 MEMB 34   POPS H9Y  HAL2           0.09         1.008       0
   18015 MEMB 34   POPS C310 CTL2          -0.18        12.011       0
   18016 MEMB 34   POPS H10X HAL2           0.09         1.008       0
   18017 MEMB 34   POPS H10Y HAL2           0.09         1.008       0
   18018 MEMB 34   POPS C311 CTL2          -0.18        12.011       0
   18019 MEMB 34   POPS H11X HAL2           0.09         1.008       0
   18020 MEMB 34   POPS H11Y HAL2           0.09         1.008       0
   18021 MEMB 34   POPS C312 CTL2          -0.18        12.011       0
   18022 MEMB 34   POPS H12X HAL2           0.09         1.008       0
   18023 MEMB 34   POPS H12Y HAL2           0.09         1.008       0
   18024 MEMB 34   POPS C313 CTL2          -0.18        12.011       0
   18025 MEMB 34   POPS H13X HAL2           0.09         1.008       0
   18026 MEMB 34   POPS H13Y HAL2           0.09         1.008       0
   18027 MEMB 34   POPS C314 CTL2          -0.18        12.011       0
   18028 MEMB 34   POPS H14X HAL2           0.09         1.008       0
   18029 MEMB 34   POPS H14Y HAL2           0.09         1.008       0
   18030 MEMB 34   POPS C315 CTL2          -0.18        12.011       0
   18031 MEMB 34   POPS H15X HAL2           0.09         1.008       0
   18032 MEMB 34   POPS H15Y HAL2           0.09         1.008       0
   18033 MEMB 34   POPS C316 CTL3          -0.27        12.011       0
   18034 MEMB 34   POPS H16X HAL3           0.09         1.008       0
   18035 MEMB 34   POPS H16Y HAL3           0.09         1.008       0
   18036 MEMB 34   POPS H16Z HAL3           0.09         1.008       0
   18037 MEMB 35   PSM  N    NTL            -0.6        14.007       0
   18038 MEMB 35   PSM  C15  CTL5          -0.35        12.011       0
   18039 MEMB 35   PSM  H15A HL             0.25         1.008       0
   18040 MEMB 35   PSM  H15B HL             0.25         1.008       0
   18041 MEMB 35   PSM  H15C HL             0.25         1.008       0
   18042 MEMB 35   PSM  C14  CTL5          -0.35        12.011       0
   18043 MEMB 35   PSM  H14A HL             0.25         1.008       0
   18044 MEMB 35   PSM  H14B HL             0.25         1.008       0
   18045 MEMB 35   PSM  H14C HL             0.25         1.008       0
   18046 MEMB 35   PSM  C13  CTL5          -0.35        12.011       0
   18047 MEMB 35   PSM  H13A HL             0.25         1.008       0
   18048 MEMB 35   PSM  H13B HL             0.25         1.008       0
   18049 MEMB 35   PSM  H13C HL             0.25         1.008       0
   18050 MEMB 35   PSM  C12  CTL2           -0.1        12.011       0
   18051 MEMB 35   PSM  H12A HL             0.25         1.008       0
   18052 MEMB 35   PSM  H12B HL             0.25         1.008       0
   18053 MEMB 35   PSM  C11  CTL2          -0.08        12.011       0
   18054 MEMB 35   PSM  H11A HAL2           0.09         1.008       0
   18055 MEMB 35   PSM  H11B HAL2           0.09         1.008       0
   18056 MEMB 35   PSM  P    PL              1.5        30.974       0
   18057 MEMB 35   PSM  O13  O2L           -0.78       15.9994       0
   18058 MEMB 35   PSM  O14  O2L           -0.78       15.9994       0
   18059 MEMB 35   PSM  O11  OSLP          -0.57       15.9994       0
   18060 MEMB 35   PSM  O12  OSLP          -0.57       15.9994       0
   18061 MEMB 35   PSM  C1S  CTL2          -0.08        12.011       0
   18062 MEMB 35   PSM  H1S  HAL2           0.09         1.008       0
   18063 MEMB 35   PSM  H1T  HAL2           0.09         1.008       0
   18064 MEMB 35   PSM  NF   NHL            -0.7        14.007       0
   18065 MEMB 35   PSM  HNF  H              0.35         1.008       0
   18066 MEMB 35   PSM  C2S  CTL1            0.3        12.011       0
   18067 MEMB 35   PSM  H2S  HAL1           0.05         1.008       0
   18068 MEMB 35   PSM  C3S  CTO1            0.5        12.011       0
   18069 MEMB 35   PSM  H3S  HAL1          -0.11         1.008       0
   18070 MEMB 35   PSM  O3   OHL           -0.69       15.9994       0
   18071 MEMB 35   PSM  HO3  HOL             0.3         1.008       0
   18072 MEMB 35   PSM  C4S  CEL3          -0.15        12.011       0
   18073 MEMB 35   PSM  H4S  HEL1           0.15         1.008       0
   18074 MEMB 35   PSM  C5S  CEL3          -0.15        12.011       0
   18075 MEMB 35   PSM  H5S  HEL1           0.15         1.008       0
   18076 MEMB 35   PSM  C6S  CTL2          -0.18        12.011       0
   18077 MEMB 35   PSM  H6S  HAL2           0.09         1.008       0
   18078 MEMB 35   PSM  H6T  HAL2           0.09         1.008       0
   18079 MEMB 35   PSM  C7S  CTL2          -0.18        12.011       0
   18080 MEMB 35   PSM  H7S  HAL2           0.09         1.008       0
   18081 MEMB 35   PSM  H7T  HAL2           0.09         1.008       0
   18082 MEMB 35   PSM  C8S  CTL2          -0.18        12.011       0
   18083 MEMB 35   PSM  H8S  HAL2           0.09         1.008       0
   18084 MEMB 35   PSM  H8T  HAL2           0.09         1.008       0
   18085 MEMB 35   PSM  C9S  CTL2          -0.18        12.011       0
   18086 MEMB 35   PSM  H9S  HAL2           0.09         1.008       0
   18087 MEMB 35   PSM  H9T  HAL2           0.09         1.008       0
   18088 MEMB 35   PSM  C10S CTL2          -0.18        12.011       0
   18089 MEMB 35   PSM  H10S HAL2           0.09         1.008       0
   18090 MEMB 35   PSM  H10T HAL2           0.09         1.008       0
   18091 MEMB 35   PSM  C11S CTL2          -0.18        12.011       0
   18092 MEMB 35   PSM  H11S HAL2           0.09         1.008       0
   18093 MEMB 35   PSM  H11T HAL2           0.09         1.008       0
   18094 MEMB 35   PSM  C12S CTL2          -0.18        12.011       0
   18095 MEMB 35   PSM  H12S HAL2           0.09         1.008       0
   18096 MEMB 35   PSM  H12T HAL2           0.09         1.008       0
   18097 MEMB 35   PSM  C13S CTL2          -0.18        12.011       0
   18098 MEMB 35   PSM  H13S HAL2           0.09         1.008       0
   18099 MEMB 35   PSM  H13T HAL2           0.09         1.008       0
   18100 MEMB 35   PSM  C14S CTL2          -0.18        12.011       0
   18101 MEMB 35   PSM  H14S HAL2           0.09         1.008       0
   18102 MEMB 35   PSM  H14T HAL2           0.09         1.008       0
   18103 MEMB 35   PSM  C15S CTL2          -0.18        12.011       0
   18104 MEMB 35   PSM  H15S HAL2           0.09         1.008       0
   18105 MEMB 35   PSM  H15T HAL2           0.09         1.008       0
   18106 MEMB 35   PSM  C16S CTL2          -0.18        12.011       0
   18107 MEMB 35   PSM  H16S HAL2           0.09         1.008       0
   18108 MEMB 35   PSM  H16T HAL2           0.09         1.008       0
   18109 MEMB 35   PSM  C17S CTL2          -0.18        12.011       0
   18110 MEMB 35   PSM  H17S HAL2           0.09         1.008       0
   18111 MEMB 35   PSM  H17T HAL2           0.09         1.008       0
   18112 MEMB 35   PSM  C18S CTL3          -0.27        12.011       0
   18113 MEMB 35   PSM  H18S HAL3           0.09         1.008       0
   18114 MEMB 35   PSM  H18T HAL3           0.09         1.008       0
   18115 MEMB 35   PSM  H18U HAL3           0.09         1.008       0
   18116 MEMB 35   PSM  C1F  C              0.55        12.011       0
   18117 MEMB 35   PSM  OF   O              -0.6        15.999       0
   18118 MEMB 35   PSM  C2F  CTL2          -0.07        12.011       0
   18119 MEMB 35   PSM  H2F  HAL2           0.06         1.008       0
   18120 MEMB 35   PSM  H2G  HAL2           0.06         1.008       0
   18121 MEMB 35   PSM  C3F  CTL2          -0.18        12.011       0
   18122 MEMB 35   PSM  H3F  HAL2           0.09         1.008       0
   18123 MEMB 35   PSM  H3G  HAL2           0.09         1.008       0
   18124 MEMB 35   PSM  C4F  CTL2          -0.18        12.011       0
   18125 MEMB 35   PSM  H4F  HAL2           0.09         1.008       0
   18126 MEMB 35   PSM  H4G  HAL2           0.09         1.008       0
   18127 MEMB 35   PSM  C5F  CTL2          -0.18        12.011       0
   18128 MEMB 35   PSM  H5F  HAL2           0.09         1.008       0
   18129 MEMB 35   PSM  H5G  HAL2           0.09         1.008       0
   18130 MEMB 35   PSM  C6F  CTL2          -0.18        12.011       0
   18131 MEMB 35   PSM  H6F  HAL2           0.09         1.008       0
   18132 MEMB 35   PSM  H6G  HAL2           0.09         1.008       0
   18133 MEMB 35   PSM  C7F  CTL2          -0.18        12.011       0
   18134 MEMB 35   PSM  H7F  HAL2           0.09         1.008       0
   18135 MEMB 35   PSM  H7G  HAL2           0.09         1.008       0
   18136 MEMB 35   PSM  C8F  CTL2          -0.18        12.011       0
   18137 MEMB 35   PSM  H8F  HAL2           0.09         1.008       0
   18138 MEMB 35   PSM  H8G  HAL2           0.09         1.008       0
   18139 MEMB 35   PSM  C9F  CTL2          -0.18        12.011       0
   18140 MEMB 35   PSM  H9F  HAL2           0.09         1.008       0
   18141 MEMB 35   PSM  H9G  HAL2           0.09         1.008       0
   18142 MEMB 35   PSM  C10F CTL2          -0.18        12.011       0
   18143 MEMB 35   PSM  H10F HAL2           0.09         1.008       0
   18144 MEMB 35   PSM  H10G HAL2           0.09         1.008       0
   18145 MEMB 35   PSM  C11F CTL2          -0.18        12.011       0
   18146 MEMB 35   PSM  H11F HAL2           0.09         1.008       0
   18147 MEMB 35   PSM  H11G HAL2           0.09         1.008       0
   18148 MEMB 35   PSM  C12F CTL2          -0.18        12.011       0
   18149 MEMB 35   PSM  H12F HAL2           0.09         1.008       0
   18150 MEMB 35   PSM  H12G HAL2           0.09         1.008       0
   18151 MEMB 35   PSM  C13F CTL2          -0.18        12.011       0
   18152 MEMB 35   PSM  H13F HAL2           0.09         1.008       0
   18153 MEMB 35   PSM  H13G HAL2           0.09         1.008       0
   18154 MEMB 35   PSM  C14F CTL2          -0.18        12.011       0
   18155 MEMB 35   PSM  H14F HAL2           0.09         1.008       0
   18156 MEMB 35   PSM  H14G HAL2           0.09         1.008       0
   18157 MEMB 35   PSM  C15F CTL2          -0.18        12.011       0
   18158 MEMB 35   PSM  H15F HAL2           0.09         1.008       0
   18159 MEMB 35   PSM  H15G HAL2           0.09         1.008       0
   18160 MEMB 35   PSM  C16F CTL3          -0.27        12.011       0
   18161 MEMB 35   PSM  H16F HAL3           0.09         1.008       0
   18162 MEMB 35   PSM  H16G HAL3           0.09         1.008       0
   18163 MEMB 35   PSM  H16H HAL3           0.09         1.008       0
   18164 MEMB 36   POPC N    NTL            -0.6        14.007       0
   18165 MEMB 36   POPC C12  CTL2           -0.1        12.011       0
   18166 MEMB 36   POPC H12A HL             0.25         1.008       0
   18167 MEMB 36   POPC H12B HL             0.25         1.008       0
   18168 MEMB 36   POPC C13  CTL5          -0.35        12.011       0
   18169 MEMB 36   POPC H13A HL             0.25         1.008       0
   18170 MEMB 36   POPC H13B HL             0.25         1.008       0
   18171 MEMB 36   POPC H13C HL             0.25         1.008       0
   18172 MEMB 36   POPC C14  CTL5          -0.35        12.011       0
   18173 MEMB 36   POPC H14A HL             0.25         1.008       0
   18174 MEMB 36   POPC H14B HL             0.25         1.008       0
   18175 MEMB 36   POPC H14C HL             0.25         1.008       0
   18176 MEMB 36   POPC C15  CTL5          -0.35        12.011       0
   18177 MEMB 36   POPC H15A HL             0.25         1.008       0
   18178 MEMB 36   POPC H15B HL             0.25         1.008       0
   18179 MEMB 36   POPC H15C HL             0.25         1.008       0
   18180 MEMB 36   POPC C11  CTL2          -0.08        12.011       0
   18181 MEMB 36   POPC H11A HAL2           0.09         1.008       0
   18182 MEMB 36   POPC H11B HAL2           0.09         1.008       0
   18183 MEMB 36   POPC P    PL              1.5        30.974       0
   18184 MEMB 36   POPC O13  O2L           -0.78       15.9994       0
   18185 MEMB 36   POPC O14  O2L           -0.78       15.9994       0
   18186 MEMB 36   POPC O12  OSLP          -0.57       15.9994       0
   18187 MEMB 36   POPC O11  OSLP          -0.57       15.9994       0
   18188 MEMB 36   POPC C1   CTL2          -0.08        12.011       0
   18189 MEMB 36   POPC HA   HAL2           0.09         1.008       0
   18190 MEMB 36   POPC HB   HAL2           0.09         1.008       0
   18191 MEMB 36   POPC C2   CTL1           0.17        12.011       0
   18192 MEMB 36   POPC HS   HAL1           0.09         1.008       0
   18193 MEMB 36   POPC O21  OSL           -0.49       15.9994       0
   18194 MEMB 36   POPC C21  CL              0.9        12.011       0
   18195 MEMB 36   POPC O22  OBL           -0.63       15.9994       0
   18196 MEMB 36   POPC C22  CTL2          -0.22        12.011       0
   18197 MEMB 36   POPC H2R  HAL2           0.09         1.008       0
   18198 MEMB 36   POPC H2S  HAL2           0.09         1.008       0
   18199 MEMB 36   POPC C3   CTL2           0.08        12.011       0
   18200 MEMB 36   POPC HX   HAL2           0.09         1.008       0
   18201 MEMB 36   POPC HY   HAL2           0.09         1.008       0
   18202 MEMB 36   POPC O31  OSL           -0.49       15.9994       0
   18203 MEMB 36   POPC C31  CL              0.9        12.011       0
   18204 MEMB 36   POPC O32  OBL           -0.63       15.9994       0
   18205 MEMB 36   POPC C32  CTL2          -0.22        12.011       0
   18206 MEMB 36   POPC H2X  HAL2           0.09         1.008       0
   18207 MEMB 36   POPC H2Y  HAL2           0.09         1.008       0
   18208 MEMB 36   POPC C23  CTL2          -0.18        12.011       0
   18209 MEMB 36   POPC H3R  HAL2           0.09         1.008       0
   18210 MEMB 36   POPC H3S  HAL2           0.09         1.008       0
   18211 MEMB 36   POPC C24  CTL2          -0.18        12.011       0
   18212 MEMB 36   POPC H4R  HAL2           0.09         1.008       0
   18213 MEMB 36   POPC H4S  HAL2           0.09         1.008       0
   18214 MEMB 36   POPC C25  CTL2          -0.18        12.011       0
   18215 MEMB 36   POPC H5R  HAL2           0.09         1.008       0
   18216 MEMB 36   POPC H5S  HAL2           0.09         1.008       0
   18217 MEMB 36   POPC C26  CTL2          -0.18        12.011       0
   18218 MEMB 36   POPC H6R  HAL2           0.09         1.008       0
   18219 MEMB 36   POPC H6S  HAL2           0.09         1.008       0
   18220 MEMB 36   POPC C27  CTL2          -0.18        12.011       0
   18221 MEMB 36   POPC H7R  HAL2           0.09         1.008       0
   18222 MEMB 36   POPC H7S  HAL2           0.09         1.008       0
   18223 MEMB 36   POPC C28  CTL2          -0.18        12.011       0
   18224 MEMB 36   POPC H8R  HAL2           0.09         1.008       0
   18225 MEMB 36   POPC H8S  HAL2           0.09         1.008       0
   18226 MEMB 36   POPC C29  CEL1          -0.15        12.011       0
   18227 MEMB 36   POPC H91  HEL1           0.15         1.008       0
   18228 MEMB 36   POPC C210 CEL1          -0.15        12.011       0
   18229 MEMB 36   POPC H101 HEL1           0.15         1.008       0
   18230 MEMB 36   POPC C211 CTL2          -0.18        12.011       0
   18231 MEMB 36   POPC H11R HAL2           0.09         1.008       0
   18232 MEMB 36   POPC H11S HAL2           0.09         1.008       0
   18233 MEMB 36   POPC C212 CTL2          -0.18        12.011       0
   18234 MEMB 36   POPC H12R HAL2           0.09         1.008       0
   18235 MEMB 36   POPC H12S HAL2           0.09         1.008       0
   18236 MEMB 36   POPC C213 CTL2          -0.18        12.011       0
   18237 MEMB 36   POPC H13R HAL2           0.09         1.008       0
   18238 MEMB 36   POPC H13S HAL2           0.09         1.008       0
   18239 MEMB 36   POPC C214 CTL2          -0.18        12.011       0
   18240 MEMB 36   POPC H14R HAL2           0.09         1.008       0
   18241 MEMB 36   POPC H14S HAL2           0.09         1.008       0
   18242 MEMB 36   POPC C215 CTL2          -0.18        12.011       0
   18243 MEMB 36   POPC H15R HAL2           0.09         1.008       0
   18244 MEMB 36   POPC H15S HAL2           0.09         1.008       0
   18245 MEMB 36   POPC C216 CTL2          -0.18        12.011       0
   18246 MEMB 36   POPC H16R HAL2           0.09         1.008       0
   18247 MEMB 36   POPC H16S HAL2           0.09         1.008       0
   18248 MEMB 36   POPC C217 CTL2          -0.18        12.011       0
   18249 MEMB 36   POPC H17R HAL2           0.09         1.008       0
   18250 MEMB 36   POPC H17S HAL2           0.09         1.008       0
   18251 MEMB 36   POPC C218 CTL3          -0.27        12.011       0
   18252 MEMB 36   POPC H18R HAL3           0.09         1.008       0
   18253 MEMB 36   POPC H18S HAL3           0.09         1.008       0
   18254 MEMB 36   POPC H18T HAL3           0.09         1.008       0
   18255 MEMB 36   POPC C33  CTL2          -0.18        12.011       0
   18256 MEMB 36   POPC H3X  HAL2           0.09         1.008       0
   18257 MEMB 36   POPC H3Y  HAL2           0.09         1.008       0
   18258 MEMB 36   POPC C34  CTL2          -0.18        12.011       0
   18259 MEMB 36   POPC H4X  HAL2           0.09         1.008       0
   18260 MEMB 36   POPC H4Y  HAL2           0.09         1.008       0
   18261 MEMB 36   POPC C35  CTL2          -0.18        12.011       0
   18262 MEMB 36   POPC H5X  HAL2           0.09         1.008       0
   18263 MEMB 36   POPC H5Y  HAL2           0.09         1.008       0
   18264 MEMB 36   POPC C36  CTL2          -0.18        12.011       0
   18265 MEMB 36   POPC H6X  HAL2           0.09         1.008       0
   18266 MEMB 36   POPC H6Y  HAL2           0.09         1.008       0
   18267 MEMB 36   POPC C37  CTL2          -0.18        12.011       0
   18268 MEMB 36   POPC H7X  HAL2           0.09         1.008       0
   18269 MEMB 36   POPC H7Y  HAL2           0.09         1.008       0
   18270 MEMB 36   POPC C38  CTL2          -0.18        12.011       0
   18271 MEMB 36   POPC H8X  HAL2           0.09         1.008       0
   18272 MEMB 36   POPC H8Y  HAL2           0.09         1.008       0
   18273 MEMB 36   POPC C39  CTL2          -0.18        12.011       0
   18274 MEMB 36   POPC H9X  HAL2           0.09         1.008       0
   18275 MEMB 36   POPC H9Y  HAL2           0.09         1.008       0
   18276 MEMB 36   POPC C310 CTL2          -0.18        12.011       0
   18277 MEMB 36   POPC H10X HAL2           0.09         1.008       0
   18278 MEMB 36   POPC H10Y HAL2           0.09         1.008       0
   18279 MEMB 36   POPC C311 CTL2          -0.18        12.011       0
   18280 MEMB 36   POPC H11X HAL2           0.09         1.008       0
   18281 MEMB 36   POPC H11Y HAL2           0.09         1.008       0
   18282 MEMB 36   POPC C312 CTL2          -0.18        12.011       0
   18283 MEMB 36   POPC H12X HAL2           0.09         1.008       0
   18284 MEMB 36   POPC H12Y HAL2           0.09         1.008       0
   18285 MEMB 36   POPC C313 CTL2          -0.18        12.011       0
   18286 MEMB 36   POPC H13X HAL2           0.09         1.008       0
   18287 MEMB 36   POPC H13Y HAL2           0.09         1.008       0
   18288 MEMB 36   POPC C314 CTL2          -0.18        12.011       0
   18289 MEMB 36   POPC H14X HAL2           0.09         1.008       0
   18290 MEMB 36   POPC H14Y HAL2           0.09         1.008       0
   18291 MEMB 36   POPC C315 CTL2          -0.18        12.011       0
   18292 MEMB 36   POPC H15X HAL2           0.09         1.008       0
   18293 MEMB 36   POPC H15Y HAL2           0.09         1.008       0
   18294 MEMB 36   POPC C316 CTL3          -0.27        12.011       0
   18295 MEMB 36   POPC H16X HAL3           0.09         1.008       0
   18296 MEMB 36   POPC H16Y HAL3           0.09         1.008       0
   18297 MEMB 36   POPC H16Z HAL3           0.09         1.008       0
   18298 MEMB 37   POPS N    NH3L           -0.3        14.007       0
   18299 MEMB 37   POPS HN1  HCL            0.33         1.008       0
   18300 MEMB 37   POPS HN2  HCL            0.33         1.008       0
   18301 MEMB 37   POPS HN3  HCL            0.33         1.008       0
   18302 MEMB 37   POPS C12  CTL1           0.21        12.011       0
   18303 MEMB 37   POPS H12A HBL             0.1         1.008       0
   18304 MEMB 37   POPS C13  CCL            0.34        12.011       0
   18305 MEMB 37   POPS O13A OCL           -0.67       15.9994       0
   18306 MEMB 37   POPS O13B OCL           -0.67       15.9994       0
   18307 MEMB 37   POPS C11  CTL2          -0.08        12.011       0
   18308 MEMB 37   POPS H11A HAL2           0.09         1.008       0
   18309 MEMB 37   POPS H11B HAL2           0.09         1.008       0
   18310 MEMB 37   POPS P    PL              1.5        30.974       0
   18311 MEMB 37   POPS O13  O2L           -0.78       15.9994       0
   18312 MEMB 37   POPS O14  O2L           -0.78       15.9994       0
   18313 MEMB 37   POPS O12  OSLP          -0.57       15.9994       0
   18314 MEMB 37   POPS O11  OSLP          -0.57       15.9994       0
   18315 MEMB 37   POPS C1   CTL2          -0.08        12.011       0
   18316 MEMB 37   POPS HA   HAL2           0.09         1.008       0
   18317 MEMB 37   POPS HB   HAL2           0.09         1.008       0
   18318 MEMB 37   POPS C2   CTL1           0.17        12.011       0
   18319 MEMB 37   POPS HS   HAL1           0.09         1.008       0
   18320 MEMB 37   POPS O21  OSL           -0.49       15.9994       0
   18321 MEMB 37   POPS C21  CL              0.9        12.011       0
   18322 MEMB 37   POPS O22  OBL           -0.63       15.9994       0
   18323 MEMB 37   POPS C22  CTL2          -0.22        12.011       0
   18324 MEMB 37   POPS H2R  HAL2           0.09         1.008       0
   18325 MEMB 37   POPS H2S  HAL2           0.09         1.008       0
   18326 MEMB 37   POPS C3   CTL2           0.08        12.011       0
   18327 MEMB 37   POPS HX   HAL2           0.09         1.008       0
   18328 MEMB 37   POPS HY   HAL2           0.09         1.008       0
   18329 MEMB 37   POPS O31  OSL           -0.49       15.9994       0
   18330 MEMB 37   POPS C31  CL              0.9        12.011       0
   18331 MEMB 37   POPS O32  OBL           -0.63       15.9994       0
   18332 MEMB 37   POPS C32  CTL2          -0.22        12.011       0
   18333 MEMB 37   POPS H2X  HAL2           0.09         1.008       0
   18334 MEMB 37   POPS H2Y  HAL2           0.09         1.008       0
   18335 MEMB 37   POPS C23  CTL2          -0.18        12.011       0
   18336 MEMB 37   POPS H3R  HAL2           0.09         1.008       0
   18337 MEMB 37   POPS H3S  HAL2           0.09         1.008       0
   18338 MEMB 37   POPS C24  CTL2          -0.18        12.011       0
   18339 MEMB 37   POPS H4R  HAL2           0.09         1.008       0
   18340 MEMB 37   POPS H4S  HAL2           0.09         1.008       0
   18341 MEMB 37   POPS C25  CTL2          -0.18        12.011       0
   18342 MEMB 37   POPS H5R  HAL2           0.09         1.008       0
   18343 MEMB 37   POPS H5S  HAL2           0.09         1.008       0
   18344 MEMB 37   POPS C26  CTL2          -0.18        12.011       0
   18345 MEMB 37   POPS H6R  HAL2           0.09         1.008       0
   18346 MEMB 37   POPS H6S  HAL2           0.09         1.008       0
   18347 MEMB 37   POPS C27  CTL2          -0.18        12.011       0
   18348 MEMB 37   POPS H7R  HAL2           0.09         1.008       0
   18349 MEMB 37   POPS H7S  HAL2           0.09         1.008       0
   18350 MEMB 37   POPS C28  CTL2          -0.18        12.011       0
   18351 MEMB 37   POPS H8R  HAL2           0.09         1.008       0
   18352 MEMB 37   POPS H8S  HAL2           0.09         1.008       0
   18353 MEMB 37   POPS C29  CEL1          -0.15        12.011       0
   18354 MEMB 37   POPS H91  HEL1           0.15         1.008       0
   18355 MEMB 37   POPS C210 CEL1          -0.15        12.011       0
   18356 MEMB 37   POPS H101 HEL1           0.15         1.008       0
   18357 MEMB 37   POPS C211 CTL2          -0.18        12.011       0
   18358 MEMB 37   POPS H11R HAL2           0.09         1.008       0
   18359 MEMB 37   POPS H11S HAL2           0.09         1.008       0
   18360 MEMB 37   POPS C212 CTL2          -0.18        12.011       0
   18361 MEMB 37   POPS H12R HAL2           0.09         1.008       0
   18362 MEMB 37   POPS H12S HAL2           0.09         1.008       0
   18363 MEMB 37   POPS C213 CTL2          -0.18        12.011       0
   18364 MEMB 37   POPS H13R HAL2           0.09         1.008       0
   18365 MEMB 37   POPS H13S HAL2           0.09         1.008       0
   18366 MEMB 37   POPS C214 CTL2          -0.18        12.011       0
   18367 MEMB 37   POPS H14R HAL2           0.09         1.008       0
   18368 MEMB 37   POPS H14S HAL2           0.09         1.008       0
   18369 MEMB 37   POPS C215 CTL2          -0.18        12.011       0
   18370 MEMB 37   POPS H15R HAL2           0.09         1.008       0
   18371 MEMB 37   POPS H15S HAL2           0.09         1.008       0
   18372 MEMB 37   POPS C216 CTL2          -0.18        12.011       0
   18373 MEMB 37   POPS H16R HAL2           0.09         1.008       0
   18374 MEMB 37   POPS H16S HAL2           0.09         1.008       0
   18375 MEMB 37   POPS C217 CTL2          -0.18        12.011       0
   18376 MEMB 37   POPS H17R HAL2           0.09         1.008       0
   18377 MEMB 37   POPS H17S HAL2           0.09         1.008       0
   18378 MEMB 37   POPS C218 CTL3          -0.27        12.011       0
   18379 MEMB 37   POPS H18R HAL3           0.09         1.008       0
   18380 MEMB 37   POPS H18S HAL3           0.09         1.008       0
   18381 MEMB 37   POPS H18T HAL3           0.09         1.008       0
   18382 MEMB 37   POPS C33  CTL2          -0.18        12.011       0
   18383 MEMB 37   POPS H3X  HAL2           0.09         1.008       0
   18384 MEMB 37   POPS H3Y  HAL2           0.09         1.008       0
   18385 MEMB 37   POPS C34  CTL2          -0.18        12.011       0
   18386 MEMB 37   POPS H4X  HAL2           0.09         1.008       0
   18387 MEMB 37   POPS H4Y  HAL2           0.09         1.008       0
   18388 MEMB 37   POPS C35  CTL2          -0.18        12.011       0
   18389 MEMB 37   POPS H5X  HAL2           0.09         1.008       0
   18390 MEMB 37   POPS H5Y  HAL2           0.09         1.008       0
   18391 MEMB 37   POPS C36  CTL2          -0.18        12.011       0
   18392 MEMB 37   POPS H6X  HAL2           0.09         1.008       0
   18393 MEMB 37   POPS H6Y  HAL2           0.09         1.008       0
   18394 MEMB 37   POPS C37  CTL2          -0.18        12.011       0
   18395 MEMB 37   POPS H7X  HAL2           0.09         1.008       0
   18396 MEMB 37   POPS H7Y  HAL2           0.09         1.008       0
   18397 MEMB 37   POPS C38  CTL2          -0.18        12.011       0
   18398 MEMB 37   POPS H8X  HAL2           0.09         1.008       0
   18399 MEMB 37   POPS H8Y  HAL2           0.09         1.008       0
   18400 MEMB 37   POPS C39  CTL2          -0.18        12.011       0
   18401 MEMB 37   POPS H9X  HAL2           0.09         1.008       0
   18402 MEMB 37   POPS H9Y  HAL2           0.09         1.008       0
   18403 MEMB 37   POPS C310 CTL2          -0.18        12.011       0
   18404 MEMB 37   POPS H10X HAL2           0.09         1.008       0
   18405 MEMB 37   POPS H10Y HAL2           0.09         1.008       0
   18406 MEMB 37   POPS C311 CTL2          -0.18        12.011       0
   18407 MEMB 37   POPS H11X HAL2           0.09         1.008       0
   18408 MEMB 37   POPS H11Y HAL2           0.09         1.008       0
   18409 MEMB 37   POPS C312 CTL2          -0.18        12.011       0
   18410 MEMB 37   POPS H12X HAL2           0.09         1.008       0
   18411 MEMB 37   POPS H12Y HAL2           0.09         1.008       0
   18412 MEMB 37   POPS C313 CTL2          -0.18        12.011       0
   18413 MEMB 37   POPS H13X HAL2           0.09         1.008       0
   18414 MEMB 37   POPS H13Y HAL2           0.09         1.008       0
   18415 MEMB 37   POPS C314 CTL2          -0.18        12.011       0
   18416 MEMB 37   POPS H14X HAL2           0.09         1.008       0
   18417 MEMB 37   POPS H14Y HAL2           0.09         1.008       0
   18418 MEMB 37   POPS C315 CTL2          -0.18        12.011       0
   18419 MEMB 37   POPS H15X HAL2           0.09         1.008       0
   18420 MEMB 37   POPS H15Y HAL2           0.09         1.008       0
   18421 MEMB 37   POPS C316 CTL3          -0.27        12.011       0
   18422 MEMB 37   POPS H16X HAL3           0.09         1.008       0
   18423 MEMB 37   POPS H16Y HAL3           0.09         1.008       0
   18424 MEMB 37   POPS H16Z HAL3           0.09         1.008       0
   18425 MEMB 38   PSM  N    NTL            -0.6        14.007       0
   18426 MEMB 38   PSM  C15  CTL5          -0.35        12.011       0
   18427 MEMB 38   PSM  H15A HL             0.25         1.008       0
   18428 MEMB 38   PSM  H15B HL             0.25         1.008       0
   18429 MEMB 38   PSM  H15C HL             0.25         1.008       0
   18430 MEMB 38   PSM  C14  CTL5          -0.35        12.011       0
   18431 MEMB 38   PSM  H14A HL             0.25         1.008       0
   18432 MEMB 38   PSM  H14B HL             0.25         1.008       0
   18433 MEMB 38   PSM  H14C HL             0.25         1.008       0
   18434 MEMB 38   PSM  C13  CTL5          -0.35        12.011       0
   18435 MEMB 38   PSM  H13A HL             0.25         1.008       0
   18436 MEMB 38   PSM  H13B HL             0.25         1.008       0
   18437 MEMB 38   PSM  H13C HL             0.25         1.008       0
   18438 MEMB 38   PSM  C12  CTL2           -0.1        12.011       0
   18439 MEMB 38   PSM  H12A HL             0.25         1.008       0
   18440 MEMB 38   PSM  H12B HL             0.25         1.008       0
   18441 MEMB 38   PSM  C11  CTL2          -0.08        12.011       0
   18442 MEMB 38   PSM  H11A HAL2           0.09         1.008       0
   18443 MEMB 38   PSM  H11B HAL2           0.09         1.008       0
   18444 MEMB 38   PSM  P    PL              1.5        30.974       0
   18445 MEMB 38   PSM  O13  O2L           -0.78       15.9994       0
   18446 MEMB 38   PSM  O14  O2L           -0.78       15.9994       0
   18447 MEMB 38   PSM  O11  OSLP          -0.57       15.9994       0
   18448 MEMB 38   PSM  O12  OSLP          -0.57       15.9994       0
   18449 MEMB 38   PSM  C1S  CTL2          -0.08        12.011       0
   18450 MEMB 38   PSM  H1S  HAL2           0.09         1.008       0
   18451 MEMB 38   PSM  H1T  HAL2           0.09         1.008       0
   18452 MEMB 38   PSM  NF   NHL            -0.7        14.007       0
   18453 MEMB 38   PSM  HNF  H              0.35         1.008       0
   18454 MEMB 38   PSM  C2S  CTL1            0.3        12.011       0
   18455 MEMB 38   PSM  H2S  HAL1           0.05         1.008       0
   18456 MEMB 38   PSM  C3S  CTO1            0.5        12.011       0
   18457 MEMB 38   PSM  H3S  HAL1          -0.11         1.008       0
   18458 MEMB 38   PSM  O3   OHL           -0.69       15.9994       0
   18459 MEMB 38   PSM  HO3  HOL             0.3         1.008       0
   18460 MEMB 38   PSM  C4S  CEL3          -0.15        12.011       0
   18461 MEMB 38   PSM  H4S  HEL1           0.15         1.008       0
   18462 MEMB 38   PSM  C5S  CEL3          -0.15        12.011       0
   18463 MEMB 38   PSM  H5S  HEL1           0.15         1.008       0
   18464 MEMB 38   PSM  C6S  CTL2          -0.18        12.011       0
   18465 MEMB 38   PSM  H6S  HAL2           0.09         1.008       0
   18466 MEMB 38   PSM  H6T  HAL2           0.09         1.008       0
   18467 MEMB 38   PSM  C7S  CTL2          -0.18        12.011       0
   18468 MEMB 38   PSM  H7S  HAL2           0.09         1.008       0
   18469 MEMB 38   PSM  H7T  HAL2           0.09         1.008       0
   18470 MEMB 38   PSM  C8S  CTL2          -0.18        12.011       0
   18471 MEMB 38   PSM  H8S  HAL2           0.09         1.008       0
   18472 MEMB 38   PSM  H8T  HAL2           0.09         1.008       0
   18473 MEMB 38   PSM  C9S  CTL2          -0.18        12.011       0
   18474 MEMB 38   PSM  H9S  HAL2           0.09         1.008       0
   18475 MEMB 38   PSM  H9T  HAL2           0.09         1.008       0
   18476 MEMB 38   PSM  C10S CTL2          -0.18        12.011       0
   18477 MEMB 38   PSM  H10S HAL2           0.09         1.008       0
   18478 MEMB 38   PSM  H10T HAL2           0.09         1.008       0
   18479 MEMB 38   PSM  C11S CTL2          -0.18        12.011       0
   18480 MEMB 38   PSM  H11S HAL2           0.09         1.008       0
   18481 MEMB 38   PSM  H11T HAL2           0.09         1.008       0
   18482 MEMB 38   PSM  C12S CTL2          -0.18        12.011       0
   18483 MEMB 38   PSM  H12S HAL2           0.09         1.008       0
   18484 MEMB 38   PSM  H12T HAL2           0.09         1.008       0
   18485 MEMB 38   PSM  C13S CTL2          -0.18        12.011       0
   18486 MEMB 38   PSM  H13S HAL2           0.09         1.008       0
   18487 MEMB 38   PSM  H13T HAL2           0.09         1.008       0
   18488 MEMB 38   PSM  C14S CTL2          -0.18        12.011       0
   18489 MEMB 38   PSM  H14S HAL2           0.09         1.008       0
   18490 MEMB 38   PSM  H14T HAL2           0.09         1.008       0
   18491 MEMB 38   PSM  C15S CTL2          -0.18        12.011       0
   18492 MEMB 38   PSM  H15S HAL2           0.09         1.008       0
   18493 MEMB 38   PSM  H15T HAL2           0.09         1.008       0
   18494 MEMB 38   PSM  C16S CTL2          -0.18        12.011       0
   18495 MEMB 38   PSM  H16S HAL2           0.09         1.008       0
   18496 MEMB 38   PSM  H16T HAL2           0.09         1.008       0
   18497 MEMB 38   PSM  C17S CTL2          -0.18        12.011       0
   18498 MEMB 38   PSM  H17S HAL2           0.09         1.008       0
   18499 MEMB 38   PSM  H17T HAL2           0.09         1.008       0
   18500 MEMB 38   PSM  C18S CTL3          -0.27        12.011       0
   18501 MEMB 38   PSM  H18S HAL3           0.09         1.008       0
   18502 MEMB 38   PSM  H18T HAL3           0.09         1.008       0
   18503 MEMB 38   PSM  H18U HAL3           0.09         1.008       0
   18504 MEMB 38   PSM  C1F  C              0.55        12.011       0
   18505 MEMB 38   PSM  OF   O              -0.6        15.999       0
   18506 MEMB 38   PSM  C2F  CTL2          -0.07        12.011       0
   18507 MEMB 38   PSM  H2F  HAL2           0.06         1.008       0
   18508 MEMB 38   PSM  H2G  HAL2           0.06         1.008       0
   18509 MEMB 38   PSM  C3F  CTL2          -0.18        12.011       0
   18510 MEMB 38   PSM  H3F  HAL2           0.09         1.008       0
   18511 MEMB 38   PSM  H3G  HAL2           0.09         1.008       0
   18512 MEMB 38   PSM  C4F  CTL2          -0.18        12.011       0
   18513 MEMB 38   PSM  H4F  HAL2           0.09         1.008       0
   18514 MEMB 38   PSM  H4G  HAL2           0.09         1.008       0
   18515 MEMB 38   PSM  C5F  CTL2          -0.18        12.011       0
   18516 MEMB 38   PSM  H5F  HAL2           0.09         1.008       0
   18517 MEMB 38   PSM  H5G  HAL2           0.09         1.008       0
   18518 MEMB 38   PSM  C6F  CTL2          -0.18        12.011       0
   18519 MEMB 38   PSM  H6F  HAL2           0.09         1.008       0
   18520 MEMB 38   PSM  H6G  HAL2           0.09         1.008       0
   18521 MEMB 38   PSM  C7F  CTL2          -0.18        12.011       0
   18522 MEMB 38   PSM  H7F  HAL2           0.09         1.008       0
   18523 MEMB 38   PSM  H7G  HAL2           0.09         1.008       0
   18524 MEMB 38   PSM  C8F  CTL2          -0.18        12.011       0
   18525 MEMB 38   PSM  H8F  HAL2           0.09         1.008       0
   18526 MEMB 38   PSM  H8G  HAL2           0.09         1.008       0
   18527 MEMB 38   PSM  C9F  CTL2          -0.18        12.011       0
   18528 MEMB 38   PSM  H9F  HAL2           0.09         1.008       0
   18529 MEMB 38   PSM  H9G  HAL2           0.09         1.008       0
   18530 MEMB 38   PSM  C10F CTL2          -0.18        12.011       0
   18531 MEMB 38   PSM  H10F HAL2           0.09         1.008       0
   18532 MEMB 38   PSM  H10G HAL2           0.09         1.008       0
   18533 MEMB 38   PSM  C11F CTL2          -0.18        12.011       0
   18534 MEMB 38   PSM  H11F HAL2           0.09         1.008       0
   18535 MEMB 38   PSM  H11G HAL2           0.09         1.008       0
   18536 MEMB 38   PSM  C12F CTL2          -0.18        12.011       0
   18537 MEMB 38   PSM  H12F HAL2           0.09         1.008       0
   18538 MEMB 38   PSM  H12G HAL2           0.09         1.008       0
   18539 MEMB 38   PSM  C13F CTL2          -0.18        12.011       0
   18540 MEMB 38   PSM  H13F HAL2           0.09         1.008       0
   18541 MEMB 38   PSM  H13G HAL2           0.09         1.008       0
   18542 MEMB 38   PSM  C14F CTL2          -0.18        12.011       0
   18543 MEMB 38   PSM  H14F HAL2           0.09         1.008       0
   18544 MEMB 38   PSM  H14G HAL2           0.09         1.008       0
   18545 MEMB 38   PSM  C15F CTL2          -0.18        12.011       0
   18546 MEMB 38   PSM  H15F HAL2           0.09         1.008       0
   18547 MEMB 38   PSM  H15G HAL2           0.09         1.008       0
   18548 MEMB 38   PSM  C16F CTL3          -0.27        12.011       0
   18549 MEMB 38   PSM  H16F HAL3           0.09         1.008       0
   18550 MEMB 38   PSM  H16G HAL3           0.09         1.008       0
   18551 MEMB 38   PSM  H16H HAL3           0.09         1.008       0
   18552 MEMB 39   POPC N    NTL            -0.6        14.007       0
   18553 MEMB 39   POPC C12  CTL2           -0.1        12.011       0
   18554 MEMB 39   POPC H12A HL             0.25         1.008       0
   18555 MEMB 39   POPC H12B HL             0.25         1.008       0
   18556 MEMB 39   POPC C13  CTL5          -0.35        12.011       0
   18557 MEMB 39   POPC H13A HL             0.25         1.008       0
   18558 MEMB 39   POPC H13B HL             0.25         1.008       0
   18559 MEMB 39   POPC H13C HL             0.25         1.008       0
   18560 MEMB 39   POPC C14  CTL5          -0.35        12.011       0
   18561 MEMB 39   POPC H14A HL             0.25         1.008       0
   18562 MEMB 39   POPC H14B HL             0.25         1.008       0
   18563 MEMB 39   POPC H14C HL             0.25         1.008       0
   18564 MEMB 39   POPC C15  CTL5          -0.35        12.011       0
   18565 MEMB 39   POPC H15A HL             0.25         1.008       0
   18566 MEMB 39   POPC H15B HL             0.25         1.008       0
   18567 MEMB 39   POPC H15C HL             0.25         1.008       0
   18568 MEMB 39   POPC C11  CTL2          -0.08        12.011       0
   18569 MEMB 39   POPC H11A HAL2           0.09         1.008       0
   18570 MEMB 39   POPC H11B HAL2           0.09         1.008       0
   18571 MEMB 39   POPC P    PL              1.5        30.974       0
   18572 MEMB 39   POPC O13  O2L           -0.78       15.9994       0
   18573 MEMB 39   POPC O14  O2L           -0.78       15.9994       0
   18574 MEMB 39   POPC O12  OSLP          -0.57       15.9994       0
   18575 MEMB 39   POPC O11  OSLP          -0.57       15.9994       0
   18576 MEMB 39   POPC C1   CTL2          -0.08        12.011       0
   18577 MEMB 39   POPC HA   HAL2           0.09         1.008       0
   18578 MEMB 39   POPC HB   HAL2           0.09         1.008       0
   18579 MEMB 39   POPC C2   CTL1           0.17        12.011       0
   18580 MEMB 39   POPC HS   HAL1           0.09         1.008       0
   18581 MEMB 39   POPC O21  OSL           -0.49       15.9994       0
   18582 MEMB 39   POPC C21  CL              0.9        12.011       0
   18583 MEMB 39   POPC O22  OBL           -0.63       15.9994       0
   18584 MEMB 39   POPC C22  CTL2          -0.22        12.011       0
   18585 MEMB 39   POPC H2R  HAL2           0.09         1.008       0
   18586 MEMB 39   POPC H2S  HAL2           0.09         1.008       0
   18587 MEMB 39   POPC C3   CTL2           0.08        12.011       0
   18588 MEMB 39   POPC HX   HAL2           0.09         1.008       0
   18589 MEMB 39   POPC HY   HAL2           0.09         1.008       0
   18590 MEMB 39   POPC O31  OSL           -0.49       15.9994       0
   18591 MEMB 39   POPC C31  CL              0.9        12.011       0
   18592 MEMB 39   POPC O32  OBL           -0.63       15.9994       0
   18593 MEMB 39   POPC C32  CTL2          -0.22        12.011       0
   18594 MEMB 39   POPC H2X  HAL2           0.09         1.008       0
   18595 MEMB 39   POPC H2Y  HAL2           0.09         1.008       0
   18596 MEMB 39   POPC C23  CTL2          -0.18        12.011       0
   18597 MEMB 39   POPC H3R  HAL2           0.09         1.008       0
   18598 MEMB 39   POPC H3S  HAL2           0.09         1.008       0
   18599 MEMB 39   POPC C24  CTL2          -0.18        12.011       0
   18600 MEMB 39   POPC H4R  HAL2           0.09         1.008       0
   18601 MEMB 39   POPC H4S  HAL2           0.09         1.008       0
   18602 MEMB 39   POPC C25  CTL2          -0.18        12.011       0
   18603 MEMB 39   POPC H5R  HAL2           0.09         1.008       0
   18604 MEMB 39   POPC H5S  HAL2           0.09         1.008       0
   18605 MEMB 39   POPC C26  CTL2          -0.18        12.011       0
   18606 MEMB 39   POPC H6R  HAL2           0.09         1.008       0
   18607 MEMB 39   POPC H6S  HAL2           0.09         1.008       0
   18608 MEMB 39   POPC C27  CTL2          -0.18        12.011       0
   18609 MEMB 39   POPC H7R  HAL2           0.09         1.008       0
   18610 MEMB 39   POPC H7S  HAL2           0.09         1.008       0
   18611 MEMB 39   POPC C28  CTL2          -0.18        12.011       0
   18612 MEMB 39   POPC H8R  HAL2           0.09         1.008       0
   18613 MEMB 39   POPC H8S  HAL2           0.09         1.008       0
   18614 MEMB 39   POPC C29  CEL1          -0.15        12.011       0
   18615 MEMB 39   POPC H91  HEL1           0.15         1.008       0
   18616 MEMB 39   POPC C210 CEL1          -0.15        12.011       0
   18617 MEMB 39   POPC H101 HEL1           0.15         1.008       0
   18618 MEMB 39   POPC C211 CTL2          -0.18        12.011       0
   18619 MEMB 39   POPC H11R HAL2           0.09         1.008       0
   18620 MEMB 39   POPC H11S HAL2           0.09         1.008       0
   18621 MEMB 39   POPC C212 CTL2          -0.18        12.011       0
   18622 MEMB 39   POPC H12R HAL2           0.09         1.008       0
   18623 MEMB 39   POPC H12S HAL2           0.09         1.008       0
   18624 MEMB 39   POPC C213 CTL2          -0.18        12.011       0
   18625 MEMB 39   POPC H13R HAL2           0.09         1.008       0
   18626 MEMB 39   POPC H13S HAL2           0.09         1.008       0
   18627 MEMB 39   POPC C214 CTL2          -0.18        12.011       0
   18628 MEMB 39   POPC H14R HAL2           0.09         1.008       0
   18629 MEMB 39   POPC H14S HAL2           0.09         1.008       0
   18630 MEMB 39   POPC C215 CTL2          -0.18        12.011       0
   18631 MEMB 39   POPC H15R HAL2           0.09         1.008       0
   18632 MEMB 39   POPC H15S HAL2           0.09         1.008       0
   18633 MEMB 39   POPC C216 CTL2          -0.18        12.011       0
   18634 MEMB 39   POPC H16R HAL2           0.09         1.008       0
   18635 MEMB 39   POPC H16S HAL2           0.09         1.008       0
   18636 MEMB 39   POPC C217 CTL2          -0.18        12.011       0
   18637 MEMB 39   POPC H17R HAL2           0.09         1.008       0
   18638 MEMB 39   POPC H17S HAL2           0.09         1.008       0
   18639 MEMB 39   POPC C218 CTL3          -0.27        12.011       0
   18640 MEMB 39   POPC H18R HAL3           0.09         1.008       0
   18641 MEMB 39   POPC H18S HAL3           0.09         1.008       0
   18642 MEMB 39   POPC H18T HAL3           0.09         1.008       0
   18643 MEMB 39   POPC C33  CTL2          -0.18        12.011       0
   18644 MEMB 39   POPC H3X  HAL2           0.09         1.008       0
   18645 MEMB 39   POPC H3Y  HAL2           0.09         1.008       0
   18646 MEMB 39   POPC C34  CTL2          -0.18        12.011       0
   18647 MEMB 39   POPC H4X  HAL2           0.09         1.008       0
   18648 MEMB 39   POPC H4Y  HAL2           0.09         1.008       0
   18649 MEMB 39   POPC C35  CTL2          -0.18        12.011       0
   18650 MEMB 39   POPC H5X  HAL2           0.09         1.008       0
   18651 MEMB 39   POPC H5Y  HAL2           0.09         1.008       0
   18652 MEMB 39   POPC C36  CTL2          -0.18        12.011       0
   18653 MEMB 39   POPC H6X  HAL2           0.09         1.008       0
   18654 MEMB 39   POPC H6Y  HAL2           0.09         1.008       0
   18655 MEMB 39   POPC C37  CTL2          -0.18        12.011       0
   18656 MEMB 39   POPC H7X  HAL2           0.09         1.008       0
   18657 MEMB 39   POPC H7Y  HAL2           0.09         1.008       0
   18658 MEMB 39   POPC C38  CTL2          -0.18        12.011       0
   18659 MEMB 39   POPC H8X  HAL2           0.09         1.008       0
   18660 MEMB 39   POPC H8Y  HAL2           0.09         1.008       0
   18661 MEMB 39   POPC C39  CTL2          -0.18        12.011       0
   18662 MEMB 39   POPC H9X  HAL2           0.09         1.008       0
   18663 MEMB 39   POPC H9Y  HAL2           0.09         1.008       0
   18664 MEMB 39   POPC C310 CTL2          -0.18        12.011       0
   18665 MEMB 39   POPC H10X HAL2           0.09         1.008       0
   18666 MEMB 39   POPC H10Y HAL2           0.09         1.008       0
   18667 MEMB 39   POPC C311 CTL2          -0.18        12.011       0
   18668 MEMB 39   POPC H11X HAL2           0.09         1.008       0
   18669 MEMB 39   POPC H11Y HAL2           0.09         1.008       0
   18670 MEMB 39   POPC C312 CTL2          -0.18        12.011       0
   18671 MEMB 39   POPC H12X HAL2           0.09         1.008       0
   18672 MEMB 39   POPC H12Y HAL2           0.09         1.008       0
   18673 MEMB 39   POPC C313 CTL2          -0.18        12.011       0
   18674 MEMB 39   POPC H13X HAL2           0.09         1.008       0
   18675 MEMB 39   POPC H13Y HAL2           0.09         1.008       0
   18676 MEMB 39   POPC C314 CTL2          -0.18        12.011       0
   18677 MEMB 39   POPC H14X HAL2           0.09         1.008       0
   18678 MEMB 39   POPC H14Y HAL2           0.09         1.008       0
   18679 MEMB 39   POPC C315 CTL2          -0.18        12.011       0
   18680 MEMB 39   POPC H15X HAL2           0.09         1.008       0
   18681 MEMB 39   POPC H15Y HAL2           0.09         1.008       0
   18682 MEMB 39   POPC C316 CTL3          -0.27        12.011       0
   18683 MEMB 39   POPC H16X HAL3           0.09         1.008       0
   18684 MEMB 39   POPC H16Y HAL3           0.09         1.008       0
   18685 MEMB 39   POPC H16Z HAL3           0.09         1.008       0
   18686 MEMB 40   PSM  N    NTL            -0.6        14.007       0
   18687 MEMB 40   PSM  C15  CTL5          -0.35        12.011       0
   18688 MEMB 40   PSM  H15A HL             0.25         1.008       0
   18689 MEMB 40   PSM  H15B HL             0.25         1.008       0
   18690 MEMB 40   PSM  H15C HL             0.25         1.008       0
   18691 MEMB 40   PSM  C14  CTL5          -0.35        12.011       0
   18692 MEMB 40   PSM  H14A HL             0.25         1.008       0
   18693 MEMB 40   PSM  H14B HL             0.25         1.008       0
   18694 MEMB 40   PSM  H14C HL             0.25         1.008       0
   18695 MEMB 40   PSM  C13  CTL5          -0.35        12.011       0
   18696 MEMB 40   PSM  H13A HL             0.25         1.008       0
   18697 MEMB 40   PSM  H13B HL             0.25         1.008       0
   18698 MEMB 40   PSM  H13C HL             0.25         1.008       0
   18699 MEMB 40   PSM  C12  CTL2           -0.1        12.011       0
   18700 MEMB 40   PSM  H12A HL             0.25         1.008       0
   18701 MEMB 40   PSM  H12B HL             0.25         1.008       0
   18702 MEMB 40   PSM  C11  CTL2          -0.08        12.011       0
   18703 MEMB 40   PSM  H11A HAL2           0.09         1.008       0
   18704 MEMB 40   PSM  H11B HAL2           0.09         1.008       0
   18705 MEMB 40   PSM  P    PL              1.5        30.974       0
   18706 MEMB 40   PSM  O13  O2L           -0.78       15.9994       0
   18707 MEMB 40   PSM  O14  O2L           -0.78       15.9994       0
   18708 MEMB 40   PSM  O11  OSLP          -0.57       15.9994       0
   18709 MEMB 40   PSM  O12  OSLP          -0.57       15.9994       0
   18710 MEMB 40   PSM  C1S  CTL2          -0.08        12.011       0
   18711 MEMB 40   PSM  H1S  HAL2           0.09         1.008       0
   18712 MEMB 40   PSM  H1T  HAL2           0.09         1.008       0
   18713 MEMB 40   PSM  NF   NHL            -0.7        14.007       0
   18714 MEMB 40   PSM  HNF  H              0.35         1.008       0
   18715 MEMB 40   PSM  C2S  CTL1            0.3        12.011       0
   18716 MEMB 40   PSM  H2S  HAL1           0.05         1.008       0
   18717 MEMB 40   PSM  C3S  CTO1            0.5        12.011       0
   18718 MEMB 40   PSM  H3S  HAL1          -0.11         1.008       0
   18719 MEMB 40   PSM  O3   OHL           -0.69       15.9994       0
   18720 MEMB 40   PSM  HO3  HOL             0.3         1.008       0
   18721 MEMB 40   PSM  C4S  CEL3          -0.15        12.011       0
   18722 MEMB 40   PSM  H4S  HEL1           0.15         1.008       0
   18723 MEMB 40   PSM  C5S  CEL3          -0.15        12.011       0
   18724 MEMB 40   PSM  H5S  HEL1           0.15         1.008       0
   18725 MEMB 40   PSM  C6S  CTL2          -0.18        12.011       0
   18726 MEMB 40   PSM  H6S  HAL2           0.09         1.008       0
   18727 MEMB 40   PSM  H6T  HAL2           0.09         1.008       0
   18728 MEMB 40   PSM  C7S  CTL2          -0.18        12.011       0
   18729 MEMB 40   PSM  H7S  HAL2           0.09         1.008       0
   18730 MEMB 40   PSM  H7T  HAL2           0.09         1.008       0
   18731 MEMB 40   PSM  C8S  CTL2          -0.18        12.011       0
   18732 MEMB 40   PSM  H8S  HAL2           0.09         1.008       0
   18733 MEMB 40   PSM  H8T  HAL2           0.09         1.008       0
   18734 MEMB 40   PSM  C9S  CTL2          -0.18        12.011       0
   18735 MEMB 40   PSM  H9S  HAL2           0.09         1.008       0
   18736 MEMB 40   PSM  H9T  HAL2           0.09         1.008       0
   18737 MEMB 40   PSM  C10S CTL2          -0.18        12.011       0
   18738 MEMB 40   PSM  H10S HAL2           0.09         1.008       0
   18739 MEMB 40   PSM  H10T HAL2           0.09         1.008       0
   18740 MEMB 40   PSM  C11S CTL2          -0.18        12.011       0
   18741 MEMB 40   PSM  H11S HAL2           0.09         1.008       0
   18742 MEMB 40   PSM  H11T HAL2           0.09         1.008       0
   18743 MEMB 40   PSM  C12S CTL2          -0.18        12.011       0
   18744 MEMB 40   PSM  H12S HAL2           0.09         1.008       0
   18745 MEMB 40   PSM  H12T HAL2           0.09         1.008       0
   18746 MEMB 40   PSM  C13S CTL2          -0.18        12.011       0
   18747 MEMB 40   PSM  H13S HAL2           0.09         1.008       0
   18748 MEMB 40   PSM  H13T HAL2           0.09         1.008       0
   18749 MEMB 40   PSM  C14S CTL2          -0.18        12.011       0
   18750 MEMB 40   PSM  H14S HAL2           0.09         1.008       0
   18751 MEMB 40   PSM  H14T HAL2           0.09         1.008       0
   18752 MEMB 40   PSM  C15S CTL2          -0.18        12.011       0
   18753 MEMB 40   PSM  H15S HAL2           0.09         1.008       0
   18754 MEMB 40   PSM  H15T HAL2           0.09         1.008       0
   18755 MEMB 40   PSM  C16S CTL2          -0.18        12.011       0
   18756 MEMB 40   PSM  H16S HAL2           0.09         1.008       0
   18757 MEMB 40   PSM  H16T HAL2           0.09         1.008       0
   18758 MEMB 40   PSM  C17S CTL2          -0.18        12.011       0
   18759 MEMB 40   PSM  H17S HAL2           0.09         1.008       0
   18760 MEMB 40   PSM  H17T HAL2           0.09         1.008       0
   18761 MEMB 40   PSM  C18S CTL3          -0.27        12.011       0
   18762 MEMB 40   PSM  H18S HAL3           0.09         1.008       0
   18763 MEMB 40   PSM  H18T HAL3           0.09         1.008       0
   18764 MEMB 40   PSM  H18U HAL3           0.09         1.008       0
   18765 MEMB 40   PSM  C1F  C              0.55        12.011       0
   18766 MEMB 40   PSM  OF   O              -0.6        15.999       0
   18767 MEMB 40   PSM  C2F  CTL2          -0.07        12.011       0
   18768 MEMB 40   PSM  H2F  HAL2           0.06         1.008       0
   18769 MEMB 40   PSM  H2G  HAL2           0.06         1.008       0
   18770 MEMB 40   PSM  C3F  CTL2          -0.18        12.011       0
   18771 MEMB 40   PSM  H3F  HAL2           0.09         1.008       0
   18772 MEMB 40   PSM  H3G  HAL2           0.09         1.008       0
   18773 MEMB 40   PSM  C4F  CTL2          -0.18        12.011       0
   18774 MEMB 40   PSM  H4F  HAL2           0.09         1.008       0
   18775 MEMB 40   PSM  H4G  HAL2           0.09         1.008       0
   18776 MEMB 40   PSM  C5F  CTL2          -0.18        12.011       0
   18777 MEMB 40   PSM  H5F  HAL2           0.09         1.008       0
   18778 MEMB 40   PSM  H5G  HAL2           0.09         1.008       0
   18779 MEMB 40   PSM  C6F  CTL2          -0.18        12.011       0
   18780 MEMB 40   PSM  H6F  HAL2           0.09         1.008       0
   18781 MEMB 40   PSM  H6G  HAL2           0.09         1.008       0
   18782 MEMB 40   PSM  C7F  CTL2          -0.18        12.011       0
   18783 MEMB 40   PSM  H7F  HAL2           0.09         1.008       0
   18784 MEMB 40   PSM  H7G  HAL2           0.09         1.008       0
   18785 MEMB 40   PSM  C8F  CTL2          -0.18        12.011       0
   18786 MEMB 40   PSM  H8F  HAL2           0.09         1.008       0
   18787 MEMB 40   PSM  H8G  HAL2           0.09         1.008       0
   18788 MEMB 40   PSM  C9F  CTL2          -0.18        12.011       0
   18789 MEMB 40   PSM  H9F  HAL2           0.09         1.008       0
   18790 MEMB 40   PSM  H9G  HAL2           0.09         1.008       0
   18791 MEMB 40   PSM  C10F CTL2          -0.18        12.011       0
   18792 MEMB 40   PSM  H10F HAL2           0.09         1.008       0
   18793 MEMB 40   PSM  H10G HAL2           0.09         1.008       0
   18794 MEMB 40   PSM  C11F CTL2          -0.18        12.011       0
   18795 MEMB 40   PSM  H11F HAL2           0.09         1.008       0
   18796 MEMB 40   PSM  H11G HAL2           0.09         1.008       0
   18797 MEMB 40   PSM  C12F CTL2          -0.18        12.011       0
   18798 MEMB 40   PSM  H12F HAL2           0.09         1.008       0
   18799 MEMB 40   PSM  H12G HAL2           0.09         1.008       0
   18800 MEMB 40   PSM  C13F CTL2          -0.18        12.011       0
   18801 MEMB 40   PSM  H13F HAL2           0.09         1.008       0
   18802 MEMB 40   PSM  H13G HAL2           0.09         1.008       0
   18803 MEMB 40   PSM  C14F CTL2          -0.18        12.011       0
   18804 MEMB 40   PSM  H14F HAL2           0.09         1.008       0
   18805 MEMB 40   PSM  H14G HAL2           0.09         1.008       0
   18806 MEMB 40   PSM  C15F CTL2          -0.18        12.011       0
   18807 MEMB 40   PSM  H15F HAL2           0.09         1.008       0
   18808 MEMB 40   PSM  H15G HAL2           0.09         1.008       0
   18809 MEMB 40   PSM  C16F CTL3          -0.27        12.011       0
   18810 MEMB 40   PSM  H16F HAL3           0.09         1.008       0
   18811 MEMB 40   PSM  H16G HAL3           0.09         1.008       0
   18812 MEMB 40   PSM  H16H HAL3           0.09         1.008       0
   18813 MEMB 41   POPE N    NH3L           -0.3        14.007       0
   18814 MEMB 41   POPE HN1  HCL            0.33         1.008       0
   18815 MEMB 41   POPE HN2  HCL            0.33         1.008       0
   18816 MEMB 41   POPE HN3  HCL            0.33         1.008       0
   18817 MEMB 41   POPE C12  CTL2           0.13        12.011       0
   18818 MEMB 41   POPE H12A HAL2           0.09         1.008       0
   18819 MEMB 41   POPE H12B HAL2           0.09         1.008       0
   18820 MEMB 41   POPE C11  CTL2          -0.08        12.011       0
   18821 MEMB 41   POPE H11A HAL2           0.09         1.008       0
   18822 MEMB 41   POPE H11B HAL2           0.09         1.008       0
   18823 MEMB 41   POPE P    PL              1.5        30.974       0
   18824 MEMB 41   POPE O13  O2L           -0.78       15.9994       0
   18825 MEMB 41   POPE O14  O2L           -0.78       15.9994       0
   18826 MEMB 41   POPE O11  OSLP          -0.57       15.9994       0
   18827 MEMB 41   POPE O12  OSLP          -0.57       15.9994       0
   18828 MEMB 41   POPE C1   CTL2          -0.08        12.011       0
   18829 MEMB 41   POPE HA   HAL2           0.09         1.008       0
   18830 MEMB 41   POPE HB   HAL2           0.09         1.008       0
   18831 MEMB 41   POPE C2   CTL1           0.17        12.011       0
   18832 MEMB 41   POPE HS   HAL1           0.09         1.008       0
   18833 MEMB 41   POPE O21  OSL           -0.49       15.9994       0
   18834 MEMB 41   POPE C21  CL              0.9        12.011       0
   18835 MEMB 41   POPE O22  OBL           -0.63       15.9994       0
   18836 MEMB 41   POPE C22  CTL2          -0.22        12.011       0
   18837 MEMB 41   POPE H2R  HAL2           0.09         1.008       0
   18838 MEMB 41   POPE H2S  HAL2           0.09         1.008       0
   18839 MEMB 41   POPE C3   CTL2           0.08        12.011       0
   18840 MEMB 41   POPE HX   HAL2           0.09         1.008       0
   18841 MEMB 41   POPE HY   HAL2           0.09         1.008       0
   18842 MEMB 41   POPE O31  OSL           -0.49       15.9994       0
   18843 MEMB 41   POPE C31  CL              0.9        12.011       0
   18844 MEMB 41   POPE O32  OBL           -0.63       15.9994       0
   18845 MEMB 41   POPE C32  CTL2          -0.22        12.011       0
   18846 MEMB 41   POPE H2X  HAL2           0.09         1.008       0
   18847 MEMB 41   POPE H2Y  HAL2           0.09         1.008       0
   18848 MEMB 41   POPE C23  CTL2          -0.18        12.011       0
   18849 MEMB 41   POPE H3R  HAL2           0.09         1.008       0
   18850 MEMB 41   POPE H3S  HAL2           0.09         1.008       0
   18851 MEMB 41   POPE C24  CTL2          -0.18        12.011       0
   18852 MEMB 41   POPE H4R  HAL2           0.09         1.008       0
   18853 MEMB 41   POPE H4S  HAL2           0.09         1.008       0
   18854 MEMB 41   POPE C25  CTL2          -0.18        12.011       0
   18855 MEMB 41   POPE H5R  HAL2           0.09         1.008       0
   18856 MEMB 41   POPE H5S  HAL2           0.09         1.008       0
   18857 MEMB 41   POPE C26  CTL2          -0.18        12.011       0
   18858 MEMB 41   POPE H6R  HAL2           0.09         1.008       0
   18859 MEMB 41   POPE H6S  HAL2           0.09         1.008       0
   18860 MEMB 41   POPE C27  CTL2          -0.18        12.011       0
   18861 MEMB 41   POPE H7R  HAL2           0.09         1.008       0
   18862 MEMB 41   POPE H7S  HAL2           0.09         1.008       0
   18863 MEMB 41   POPE C28  CTL2          -0.18        12.011       0
   18864 MEMB 41   POPE H8R  HAL2           0.09         1.008       0
   18865 MEMB 41   POPE H8S  HAL2           0.09         1.008       0
   18866 MEMB 41   POPE C29  CEL1          -0.15        12.011       0
   18867 MEMB 41   POPE H91  HEL1           0.15         1.008       0
   18868 MEMB 41   POPE C210 CEL1          -0.15        12.011       0
   18869 MEMB 41   POPE H101 HEL1           0.15         1.008       0
   18870 MEMB 41   POPE C211 CTL2          -0.18        12.011       0
   18871 MEMB 41   POPE H11R HAL2           0.09         1.008       0
   18872 MEMB 41   POPE H11S HAL2           0.09         1.008       0
   18873 MEMB 41   POPE C212 CTL2          -0.18        12.011       0
   18874 MEMB 41   POPE H12R HAL2           0.09         1.008       0
   18875 MEMB 41   POPE H12S HAL2           0.09         1.008       0
   18876 MEMB 41   POPE C213 CTL2          -0.18        12.011       0
   18877 MEMB 41   POPE H13R HAL2           0.09         1.008       0
   18878 MEMB 41   POPE H13S HAL2           0.09         1.008       0
   18879 MEMB 41   POPE C214 CTL2          -0.18        12.011       0
   18880 MEMB 41   POPE H14R HAL2           0.09         1.008       0
   18881 MEMB 41   POPE H14S HAL2           0.09         1.008       0
   18882 MEMB 41   POPE C215 CTL2          -0.18        12.011       0
   18883 MEMB 41   POPE H15R HAL2           0.09         1.008       0
   18884 MEMB 41   POPE H15S HAL2           0.09         1.008       0
   18885 MEMB 41   POPE C216 CTL2          -0.18        12.011       0
   18886 MEMB 41   POPE H16R HAL2           0.09         1.008       0
   18887 MEMB 41   POPE H16S HAL2           0.09         1.008       0
   18888 MEMB 41   POPE C217 CTL2          -0.18        12.011       0
   18889 MEMB 41   POPE H17R HAL2           0.09         1.008       0
   18890 MEMB 41   POPE H17S HAL2           0.09         1.008       0
   18891 MEMB 41   POPE C218 CTL3          -0.27        12.011       0
   18892 MEMB 41   POPE H18R HAL3           0.09         1.008       0
   18893 MEMB 41   POPE H18S HAL3           0.09         1.008       0
   18894 MEMB 41   POPE H18T HAL3           0.09         1.008       0
   18895 MEMB 41   POPE C33  CTL2          -0.18        12.011       0
   18896 MEMB 41   POPE H3X  HAL2           0.09         1.008       0
   18897 MEMB 41   POPE H3Y  HAL2           0.09         1.008       0
   18898 MEMB 41   POPE C34  CTL2          -0.18        12.011       0
   18899 MEMB 41   POPE H4X  HAL2           0.09         1.008       0
   18900 MEMB 41   POPE H4Y  HAL2           0.09         1.008       0
   18901 MEMB 41   POPE C35  CTL2          -0.18        12.011       0
   18902 MEMB 41   POPE H5X  HAL2           0.09         1.008       0
   18903 MEMB 41   POPE H5Y  HAL2           0.09         1.008       0
   18904 MEMB 41   POPE C36  CTL2          -0.18        12.011       0
   18905 MEMB 41   POPE H6X  HAL2           0.09         1.008       0
   18906 MEMB 41   POPE H6Y  HAL2           0.09         1.008       0
   18907 MEMB 41   POPE C37  CTL2          -0.18        12.011       0
   18908 MEMB 41   POPE H7X  HAL2           0.09         1.008       0
   18909 MEMB 41   POPE H7Y  HAL2           0.09         1.008       0
   18910 MEMB 41   POPE C38  CTL2          -0.18        12.011       0
   18911 MEMB 41   POPE H8X  HAL2           0.09         1.008       0
   18912 MEMB 41   POPE H8Y  HAL2           0.09         1.008       0
   18913 MEMB 41   POPE C39  CTL2          -0.18        12.011       0
   18914 MEMB 41   POPE H9X  HAL2           0.09         1.008       0
   18915 MEMB 41   POPE H9Y  HAL2           0.09         1.008       0
   18916 MEMB 41   POPE C310 CTL2          -0.18        12.011       0
   18917 MEMB 41   POPE H10X HAL2           0.09         1.008       0
   18918 MEMB 41   POPE H10Y HAL2           0.09         1.008       0
   18919 MEMB 41   POPE C311 CTL2          -0.18        12.011       0
   18920 MEMB 41   POPE H11X HAL2           0.09         1.008       0
   18921 MEMB 41   POPE H11Y HAL2           0.09         1.008       0
   18922 MEMB 41   POPE C312 CTL2          -0.18        12.011       0
   18923 MEMB 41   POPE H12X HAL2           0.09         1.008       0
   18924 MEMB 41   POPE H12Y HAL2           0.09         1.008       0
   18925 MEMB 41   POPE C313 CTL2          -0.18        12.011       0
   18926 MEMB 41   POPE H13X HAL2           0.09         1.008       0
   18927 MEMB 41   POPE H13Y HAL2           0.09         1.008       0
   18928 MEMB 41   POPE C314 CTL2          -0.18        12.011       0
   18929 MEMB 41   POPE H14X HAL2           0.09         1.008       0
   18930 MEMB 41   POPE H14Y HAL2           0.09         1.008       0
   18931 MEMB 41   POPE C315 CTL2          -0.18        12.011       0
   18932 MEMB 41   POPE H15X HAL2           0.09         1.008       0
   18933 MEMB 41   POPE H15Y HAL2           0.09         1.008       0
   18934 MEMB 41   POPE C316 CTL3          -0.27        12.011       0
   18935 MEMB 41   POPE H16X HAL3           0.09         1.008       0
   18936 MEMB 41   POPE H16Y HAL3           0.09         1.008       0
   18937 MEMB 41   POPE H16Z HAL3           0.09         1.008       0
   18938 MEMB 42   POPC N    NTL            -0.6        14.007       0
   18939 MEMB 42   POPC C12  CTL2           -0.1        12.011       0
   18940 MEMB 42   POPC H12A HL             0.25         1.008       0
   18941 MEMB 42   POPC H12B HL             0.25         1.008       0
   18942 MEMB 42   POPC C13  CTL5          -0.35        12.011       0
   18943 MEMB 42   POPC H13A HL             0.25         1.008       0
   18944 MEMB 42   POPC H13B HL             0.25         1.008       0
   18945 MEMB 42   POPC H13C HL             0.25         1.008       0
   18946 MEMB 42   POPC C14  CTL5          -0.35        12.011       0
   18947 MEMB 42   POPC H14A HL             0.25         1.008       0
   18948 MEMB 42   POPC H14B HL             0.25         1.008       0
   18949 MEMB 42   POPC H14C HL             0.25         1.008       0
   18950 MEMB 42   POPC C15  CTL5          -0.35        12.011       0
   18951 MEMB 42   POPC H15A HL             0.25         1.008       0
   18952 MEMB 42   POPC H15B HL             0.25         1.008       0
   18953 MEMB 42   POPC H15C HL             0.25         1.008       0
   18954 MEMB 42   POPC C11  CTL2          -0.08        12.011       0
   18955 MEMB 42   POPC H11A HAL2           0.09         1.008       0
   18956 MEMB 42   POPC H11B HAL2           0.09         1.008       0
   18957 MEMB 42   POPC P    PL              1.5        30.974       0
   18958 MEMB 42   POPC O13  O2L           -0.78       15.9994       0
   18959 MEMB 42   POPC O14  O2L           -0.78       15.9994       0
   18960 MEMB 42   POPC O12  OSLP          -0.57       15.9994       0
   18961 MEMB 42   POPC O11  OSLP          -0.57       15.9994       0
   18962 MEMB 42   POPC C1   CTL2          -0.08        12.011       0
   18963 MEMB 42   POPC HA   HAL2           0.09         1.008       0
   18964 MEMB 42   POPC HB   HAL2           0.09         1.008       0
   18965 MEMB 42   POPC C2   CTL1           0.17        12.011       0
   18966 MEMB 42   POPC HS   HAL1           0.09         1.008       0
   18967 MEMB 42   POPC O21  OSL           -0.49       15.9994       0
   18968 MEMB 42   POPC C21  CL              0.9        12.011       0
   18969 MEMB 42   POPC O22  OBL           -0.63       15.9994       0
   18970 MEMB 42   POPC C22  CTL2          -0.22        12.011       0
   18971 MEMB 42   POPC H2R  HAL2           0.09         1.008       0
   18972 MEMB 42   POPC H2S  HAL2           0.09         1.008       0
   18973 MEMB 42   POPC C3   CTL2           0.08        12.011       0
   18974 MEMB 42   POPC HX   HAL2           0.09         1.008       0
   18975 MEMB 42   POPC HY   HAL2           0.09         1.008       0
   18976 MEMB 42   POPC O31  OSL           -0.49       15.9994       0
   18977 MEMB 42   POPC C31  CL              0.9        12.011       0
   18978 MEMB 42   POPC O32  OBL           -0.63       15.9994       0
   18979 MEMB 42   POPC C32  CTL2          -0.22        12.011       0
   18980 MEMB 42   POPC H2X  HAL2           0.09         1.008       0
   18981 MEMB 42   POPC H2Y  HAL2           0.09         1.008       0
   18982 MEMB 42   POPC C23  CTL2          -0.18        12.011       0
   18983 MEMB 42   POPC H3R  HAL2           0.09         1.008       0
   18984 MEMB 42   POPC H3S  HAL2           0.09         1.008       0
   18985 MEMB 42   POPC C24  CTL2          -0.18        12.011       0
   18986 MEMB 42   POPC H4R  HAL2           0.09         1.008       0
   18987 MEMB 42   POPC H4S  HAL2           0.09         1.008       0
   18988 MEMB 42   POPC C25  CTL2          -0.18        12.011       0
   18989 MEMB 42   POPC H5R  HAL2           0.09         1.008       0
   18990 MEMB 42   POPC H5S  HAL2           0.09         1.008       0
   18991 MEMB 42   POPC C26  CTL2          -0.18        12.011       0
   18992 MEMB 42   POPC H6R  HAL2           0.09         1.008       0
   18993 MEMB 42   POPC H6S  HAL2           0.09         1.008       0
   18994 MEMB 42   POPC C27  CTL2          -0.18        12.011       0
   18995 MEMB 42   POPC H7R  HAL2           0.09         1.008       0
   18996 MEMB 42   POPC H7S  HAL2           0.09         1.008       0
   18997 MEMB 42   POPC C28  CTL2          -0.18        12.011       0
   18998 MEMB 42   POPC H8R  HAL2           0.09         1.008       0
   18999 MEMB 42   POPC H8S  HAL2           0.09         1.008       0
   19000 MEMB 42   POPC C29  CEL1          -0.15        12.011       0
   19001 MEMB 42   POPC H91  HEL1           0.15         1.008       0
   19002 MEMB 42   POPC C210 CEL1          -0.15        12.011       0
   19003 MEMB 42   POPC H101 HEL1           0.15         1.008       0
   19004 MEMB 42   POPC C211 CTL2          -0.18        12.011       0
   19005 MEMB 42   POPC H11R HAL2           0.09         1.008       0
   19006 MEMB 42   POPC H11S HAL2           0.09         1.008       0
   19007 MEMB 42   POPC C212 CTL2          -0.18        12.011       0
   19008 MEMB 42   POPC H12R HAL2           0.09         1.008       0
   19009 MEMB 42   POPC H12S HAL2           0.09         1.008       0
   19010 MEMB 42   POPC C213 CTL2          -0.18        12.011       0
   19011 MEMB 42   POPC H13R HAL2           0.09         1.008       0
   19012 MEMB 42   POPC H13S HAL2           0.09         1.008       0
   19013 MEMB 42   POPC C214 CTL2          -0.18        12.011       0
   19014 MEMB 42   POPC H14R HAL2           0.09         1.008       0
   19015 MEMB 42   POPC H14S HAL2           0.09         1.008       0
   19016 MEMB 42   POPC C215 CTL2          -0.18        12.011       0
   19017 MEMB 42   POPC H15R HAL2           0.09         1.008       0
   19018 MEMB 42   POPC H15S HAL2           0.09         1.008       0
   19019 MEMB 42   POPC C216 CTL2          -0.18        12.011       0
   19020 MEMB 42   POPC H16R HAL2           0.09         1.008       0
   19021 MEMB 42   POPC H16S HAL2           0.09         1.008       0
   19022 MEMB 42   POPC C217 CTL2          -0.18        12.011       0
   19023 MEMB 42   POPC H17R HAL2           0.09         1.008       0
   19024 MEMB 42   POPC H17S HAL2           0.09         1.008       0
   19025 MEMB 42   POPC C218 CTL3          -0.27        12.011       0
   19026 MEMB 42   POPC H18R HAL3           0.09         1.008       0
   19027 MEMB 42   POPC H18S HAL3           0.09         1.008       0
   19028 MEMB 42   POPC H18T HAL3           0.09         1.008       0
   19029 MEMB 42   POPC C33  CTL2          -0.18        12.011       0
   19030 MEMB 42   POPC H3X  HAL2           0.09         1.008       0
   19031 MEMB 42   POPC H3Y  HAL2           0.09         1.008       0
   19032 MEMB 42   POPC C34  CTL2          -0.18        12.011       0
   19033 MEMB 42   POPC H4X  HAL2           0.09         1.008       0
   19034 MEMB 42   POPC H4Y  HAL2           0.09         1.008       0
   19035 MEMB 42   POPC C35  CTL2          -0.18        12.011       0
   19036 MEMB 42   POPC H5X  HAL2           0.09         1.008       0
   19037 MEMB 42   POPC H5Y  HAL2           0.09         1.008       0
   19038 MEMB 42   POPC C36  CTL2          -0.18        12.011       0
   19039 MEMB 42   POPC H6X  HAL2           0.09         1.008       0
   19040 MEMB 42   POPC H6Y  HAL2           0.09         1.008       0
   19041 MEMB 42   POPC C37  CTL2          -0.18        12.011       0
   19042 MEMB 42   POPC H7X  HAL2           0.09         1.008       0
   19043 MEMB 42   POPC H7Y  HAL2           0.09         1.008       0
   19044 MEMB 42   POPC C38  CTL2          -0.18        12.011       0
   19045 MEMB 42   POPC H8X  HAL2           0.09         1.008       0
   19046 MEMB 42   POPC H8Y  HAL2           0.09         1.008       0
   19047 MEMB 42   POPC C39  CTL2          -0.18        12.011       0
   19048 MEMB 42   POPC H9X  HAL2           0.09         1.008       0
   19049 MEMB 42   POPC H9Y  HAL2           0.09         1.008       0
   19050 MEMB 42   POPC C310 CTL2          -0.18        12.011       0
   19051 MEMB 42   POPC H10X HAL2           0.09         1.008       0
   19052 MEMB 42   POPC H10Y HAL2           0.09         1.008       0
   19053 MEMB 42   POPC C311 CTL2          -0.18        12.011       0
   19054 MEMB 42   POPC H11X HAL2           0.09         1.008       0
   19055 MEMB 42   POPC H11Y HAL2           0.09         1.008       0
   19056 MEMB 42   POPC C312 CTL2          -0.18        12.011       0
   19057 MEMB 42   POPC H12X HAL2           0.09         1.008       0
   19058 MEMB 42   POPC H12Y HAL2           0.09         1.008       0
   19059 MEMB 42   POPC C313 CTL2          -0.18        12.011       0
   19060 MEMB 42   POPC H13X HAL2           0.09         1.008       0
   19061 MEMB 42   POPC H13Y HAL2           0.09         1.008       0
   19062 MEMB 42   POPC C314 CTL2          -0.18        12.011       0
   19063 MEMB 42   POPC H14X HAL2           0.09         1.008       0
   19064 MEMB 42   POPC H14Y HAL2           0.09         1.008       0
   19065 MEMB 42   POPC C315 CTL2          -0.18        12.011       0
   19066 MEMB 42   POPC H15X HAL2           0.09         1.008       0
   19067 MEMB 42   POPC H15Y HAL2           0.09         1.008       0
   19068 MEMB 42   POPC C316 CTL3          -0.27        12.011       0
   19069 MEMB 42   POPC H16X HAL3           0.09         1.008       0
   19070 MEMB 42   POPC H16Y HAL3           0.09         1.008       0
   19071 MEMB 42   POPC H16Z HAL3           0.09         1.008       0
   19072 MEMB 43   POPC N    NTL            -0.6        14.007       0
   19073 MEMB 43   POPC C12  CTL2           -0.1        12.011       0
   19074 MEMB 43   POPC H12A HL             0.25         1.008       0
   19075 MEMB 43   POPC H12B HL             0.25         1.008       0
   19076 MEMB 43   POPC C13  CTL5          -0.35        12.011       0
   19077 MEMB 43   POPC H13A HL             0.25         1.008       0
   19078 MEMB 43   POPC H13B HL             0.25         1.008       0
   19079 MEMB 43   POPC H13C HL             0.25         1.008       0
   19080 MEMB 43   POPC C14  CTL5          -0.35        12.011       0
   19081 MEMB 43   POPC H14A HL             0.25         1.008       0
   19082 MEMB 43   POPC H14B HL             0.25         1.008       0
   19083 MEMB 43   POPC H14C HL             0.25         1.008       0
   19084 MEMB 43   POPC C15  CTL5          -0.35        12.011       0
   19085 MEMB 43   POPC H15A HL             0.25         1.008       0
   19086 MEMB 43   POPC H15B HL             0.25         1.008       0
   19087 MEMB 43   POPC H15C HL             0.25         1.008       0
   19088 MEMB 43   POPC C11  CTL2          -0.08        12.011       0
   19089 MEMB 43   POPC H11A HAL2           0.09         1.008       0
   19090 MEMB 43   POPC H11B HAL2           0.09         1.008       0
   19091 MEMB 43   POPC P    PL              1.5        30.974       0
   19092 MEMB 43   POPC O13  O2L           -0.78       15.9994       0
   19093 MEMB 43   POPC O14  O2L           -0.78       15.9994       0
   19094 MEMB 43   POPC O12  OSLP          -0.57       15.9994       0
   19095 MEMB 43   POPC O11  OSLP          -0.57       15.9994       0
   19096 MEMB 43   POPC C1   CTL2          -0.08        12.011       0
   19097 MEMB 43   POPC HA   HAL2           0.09         1.008       0
   19098 MEMB 43   POPC HB   HAL2           0.09         1.008       0
   19099 MEMB 43   POPC C2   CTL1           0.17        12.011       0
   19100 MEMB 43   POPC HS   HAL1           0.09         1.008       0
   19101 MEMB 43   POPC O21  OSL           -0.49       15.9994       0
   19102 MEMB 43   POPC C21  CL              0.9        12.011       0
   19103 MEMB 43   POPC O22  OBL           -0.63       15.9994       0
   19104 MEMB 43   POPC C22  CTL2          -0.22        12.011       0
   19105 MEMB 43   POPC H2R  HAL2           0.09         1.008       0
   19106 MEMB 43   POPC H2S  HAL2           0.09         1.008       0
   19107 MEMB 43   POPC C3   CTL2           0.08        12.011       0
   19108 MEMB 43   POPC HX   HAL2           0.09         1.008       0
   19109 MEMB 43   POPC HY   HAL2           0.09         1.008       0
   19110 MEMB 43   POPC O31  OSL           -0.49       15.9994       0
   19111 MEMB 43   POPC C31  CL              0.9        12.011       0
   19112 MEMB 43   POPC O32  OBL           -0.63       15.9994       0
   19113 MEMB 43   POPC C32  CTL2          -0.22        12.011       0
   19114 MEMB 43   POPC H2X  HAL2           0.09         1.008       0
   19115 MEMB 43   POPC H2Y  HAL2           0.09         1.008       0
   19116 MEMB 43   POPC C23  CTL2          -0.18        12.011       0
   19117 MEMB 43   POPC H3R  HAL2           0.09         1.008       0
   19118 MEMB 43   POPC H3S  HAL2           0.09         1.008       0
   19119 MEMB 43   POPC C24  CTL2          -0.18        12.011       0
   19120 MEMB 43   POPC H4R  HAL2           0.09         1.008       0
   19121 MEMB 43   POPC H4S  HAL2           0.09         1.008       0
   19122 MEMB 43   POPC C25  CTL2          -0.18        12.011       0
   19123 MEMB 43   POPC H5R  HAL2           0.09         1.008       0
   19124 MEMB 43   POPC H5S  HAL2           0.09         1.008       0
   19125 MEMB 43   POPC C26  CTL2          -0.18        12.011       0
   19126 MEMB 43   POPC H6R  HAL2           0.09         1.008       0
   19127 MEMB 43   POPC H6S  HAL2           0.09         1.008       0
   19128 MEMB 43   POPC C27  CTL2          -0.18        12.011       0
   19129 MEMB 43   POPC H7R  HAL2           0.09         1.008       0
   19130 MEMB 43   POPC H7S  HAL2           0.09         1.008       0
   19131 MEMB 43   POPC C28  CTL2          -0.18        12.011       0
   19132 MEMB 43   POPC H8R  HAL2           0.09         1.008       0
   19133 MEMB 43   POPC H8S  HAL2           0.09         1.008       0
   19134 MEMB 43   POPC C29  CEL1          -0.15        12.011       0
   19135 MEMB 43   POPC H91  HEL1           0.15         1.008       0
   19136 MEMB 43   POPC C210 CEL1          -0.15        12.011       0
   19137 MEMB 43   POPC H101 HEL1           0.15         1.008       0
   19138 MEMB 43   POPC C211 CTL2          -0.18        12.011       0
   19139 MEMB 43   POPC H11R HAL2           0.09         1.008       0
   19140 MEMB 43   POPC H11S HAL2           0.09         1.008       0
   19141 MEMB 43   POPC C212 CTL2          -0.18        12.011       0
   19142 MEMB 43   POPC H12R HAL2           0.09         1.008       0
   19143 MEMB 43   POPC H12S HAL2           0.09         1.008       0
   19144 MEMB 43   POPC C213 CTL2          -0.18        12.011       0
   19145 MEMB 43   POPC H13R HAL2           0.09         1.008       0
   19146 MEMB 43   POPC H13S HAL2           0.09         1.008       0
   19147 MEMB 43   POPC C214 CTL2          -0.18        12.011       0
   19148 MEMB 43   POPC H14R HAL2           0.09         1.008       0
   19149 MEMB 43   POPC H14S HAL2           0.09         1.008       0
   19150 MEMB 43   POPC C215 CTL2          -0.18        12.011       0
   19151 MEMB 43   POPC H15R HAL2           0.09         1.008       0
   19152 MEMB 43   POPC H15S HAL2           0.09         1.008       0
   19153 MEMB 43   POPC C216 CTL2          -0.18        12.011       0
   19154 MEMB 43   POPC H16R HAL2           0.09         1.008       0
   19155 MEMB 43   POPC H16S HAL2           0.09         1.008       0
   19156 MEMB 43   POPC C217 CTL2          -0.18        12.011       0
   19157 MEMB 43   POPC H17R HAL2           0.09         1.008       0
   19158 MEMB 43   POPC H17S HAL2           0.09         1.008       0
   19159 MEMB 43   POPC C218 CTL3          -0.27        12.011       0
   19160 MEMB 43   POPC H18R HAL3           0.09         1.008       0
   19161 MEMB 43   POPC H18S HAL3           0.09         1.008       0
   19162 MEMB 43   POPC H18T HAL3           0.09         1.008       0
   19163 MEMB 43   POPC C33  CTL2          -0.18        12.011       0
   19164 MEMB 43   POPC H3X  HAL2           0.09         1.008       0
   19165 MEMB 43   POPC H3Y  HAL2           0.09         1.008       0
   19166 MEMB 43   POPC C34  CTL2          -0.18        12.011       0
   19167 MEMB 43   POPC H4X  HAL2           0.09         1.008       0
   19168 MEMB 43   POPC H4Y  HAL2           0.09         1.008       0
   19169 MEMB 43   POPC C35  CTL2          -0.18        12.011       0
   19170 MEMB 43   POPC H5X  HAL2           0.09         1.008       0
   19171 MEMB 43   POPC H5Y  HAL2           0.09         1.008       0
   19172 MEMB 43   POPC C36  CTL2          -0.18        12.011       0
   19173 MEMB 43   POPC H6X  HAL2           0.09         1.008       0
   19174 MEMB 43   POPC H6Y  HAL2           0.09         1.008       0
   19175 MEMB 43   POPC C37  CTL2          -0.18        12.011       0
   19176 MEMB 43   POPC H7X  HAL2           0.09         1.008       0
   19177 MEMB 43   POPC H7Y  HAL2           0.09         1.008       0
   19178 MEMB 43   POPC C38  CTL2          -0.18        12.011       0
   19179 MEMB 43   POPC H8X  HAL2           0.09         1.008       0
   19180 MEMB 43   POPC H8Y  HAL2           0.09         1.008       0
   19181 MEMB 43   POPC C39  CTL2          -0.18        12.011       0
   19182 MEMB 43   POPC H9X  HAL2           0.09         1.008       0
   19183 MEMB 43   POPC H9Y  HAL2           0.09         1.008       0
   19184 MEMB 43   POPC C310 CTL2          -0.18        12.011       0
   19185 MEMB 43   POPC H10X HAL2           0.09         1.008       0
   19186 MEMB 43   POPC H10Y HAL2           0.09         1.008       0
   19187 MEMB 43   POPC C311 CTL2          -0.18        12.011       0
   19188 MEMB 43   POPC H11X HAL2           0.09         1.008       0
   19189 MEMB 43   POPC H11Y HAL2           0.09         1.008       0
   19190 MEMB 43   POPC C312 CTL2          -0.18        12.011       0
   19191 MEMB 43   POPC H12X HAL2           0.09         1.008       0
   19192 MEMB 43   POPC H12Y HAL2           0.09         1.008       0
   19193 MEMB 43   POPC C313 CTL2          -0.18        12.011       0
   19194 MEMB 43   POPC H13X HAL2           0.09         1.008       0
   19195 MEMB 43   POPC H13Y HAL2           0.09         1.008       0
   19196 MEMB 43   POPC C314 CTL2          -0.18        12.011       0
   19197 MEMB 43   POPC H14X HAL2           0.09         1.008       0
   19198 MEMB 43   POPC H14Y HAL2           0.09         1.008       0
   19199 MEMB 43   POPC C315 CTL2          -0.18        12.011       0
   19200 MEMB 43   POPC H15X HAL2           0.09         1.008       0
   19201 MEMB 43   POPC H15Y HAL2           0.09         1.008       0
   19202 MEMB 43   POPC C316 CTL3          -0.27        12.011       0
   19203 MEMB 43   POPC H16X HAL3           0.09         1.008       0
   19204 MEMB 43   POPC H16Y HAL3           0.09         1.008       0
   19205 MEMB 43   POPC H16Z HAL3           0.09         1.008       0
   19206 MEMB 44   POPE N    NH3L           -0.3        14.007       0
   19207 MEMB 44   POPE HN1  HCL            0.33         1.008       0
   19208 MEMB 44   POPE HN2  HCL            0.33         1.008       0
   19209 MEMB 44   POPE HN3  HCL            0.33         1.008       0
   19210 MEMB 44   POPE C12  CTL2           0.13        12.011       0
   19211 MEMB 44   POPE H12A HAL2           0.09         1.008       0
   19212 MEMB 44   POPE H12B HAL2           0.09         1.008       0
   19213 MEMB 44   POPE C11  CTL2          -0.08        12.011       0
   19214 MEMB 44   POPE H11A HAL2           0.09         1.008       0
   19215 MEMB 44   POPE H11B HAL2           0.09         1.008       0
   19216 MEMB 44   POPE P    PL              1.5        30.974       0
   19217 MEMB 44   POPE O13  O2L           -0.78       15.9994       0
   19218 MEMB 44   POPE O14  O2L           -0.78       15.9994       0
   19219 MEMB 44   POPE O11  OSLP          -0.57       15.9994       0
   19220 MEMB 44   POPE O12  OSLP          -0.57       15.9994       0
   19221 MEMB 44   POPE C1   CTL2          -0.08        12.011       0
   19222 MEMB 44   POPE HA   HAL2           0.09         1.008       0
   19223 MEMB 44   POPE HB   HAL2           0.09         1.008       0
   19224 MEMB 44   POPE C2   CTL1           0.17        12.011       0
   19225 MEMB 44   POPE HS   HAL1           0.09         1.008       0
   19226 MEMB 44   POPE O21  OSL           -0.49       15.9994       0
   19227 MEMB 44   POPE C21  CL              0.9        12.011       0
   19228 MEMB 44   POPE O22  OBL           -0.63       15.9994       0
   19229 MEMB 44   POPE C22  CTL2          -0.22        12.011       0
   19230 MEMB 44   POPE H2R  HAL2           0.09         1.008       0
   19231 MEMB 44   POPE H2S  HAL2           0.09         1.008       0
   19232 MEMB 44   POPE C3   CTL2           0.08        12.011       0
   19233 MEMB 44   POPE HX   HAL2           0.09         1.008       0
   19234 MEMB 44   POPE HY   HAL2           0.09         1.008       0
   19235 MEMB 44   POPE O31  OSL           -0.49       15.9994       0
   19236 MEMB 44   POPE C31  CL              0.9        12.011       0
   19237 MEMB 44   POPE O32  OBL           -0.63       15.9994       0
   19238 MEMB 44   POPE C32  CTL2          -0.22        12.011       0
   19239 MEMB 44   POPE H2X  HAL2           0.09         1.008       0
   19240 MEMB 44   POPE H2Y  HAL2           0.09         1.008       0
   19241 MEMB 44   POPE C23  CTL2          -0.18        12.011       0
   19242 MEMB 44   POPE H3R  HAL2           0.09         1.008       0
   19243 MEMB 44   POPE H3S  HAL2           0.09         1.008       0
   19244 MEMB 44   POPE C24  CTL2          -0.18        12.011       0
   19245 MEMB 44   POPE H4R  HAL2           0.09         1.008       0
   19246 MEMB 44   POPE H4S  HAL2           0.09         1.008       0
   19247 MEMB 44   POPE C25  CTL2          -0.18        12.011       0
   19248 MEMB 44   POPE H5R  HAL2           0.09         1.008       0
   19249 MEMB 44   POPE H5S  HAL2           0.09         1.008       0
   19250 MEMB 44   POPE C26  CTL2          -0.18        12.011       0
   19251 MEMB 44   POPE H6R  HAL2           0.09         1.008       0
   19252 MEMB 44   POPE H6S  HAL2           0.09         1.008       0
   19253 MEMB 44   POPE C27  CTL2          -0.18        12.011       0
   19254 MEMB 44   POPE H7R  HAL2           0.09         1.008       0
   19255 MEMB 44   POPE H7S  HAL2           0.09         1.008       0
   19256 MEMB 44   POPE C28  CTL2          -0.18        12.011       0
   19257 MEMB 44   POPE H8R  HAL2           0.09         1.008       0
   19258 MEMB 44   POPE H8S  HAL2           0.09         1.008       0
   19259 MEMB 44   POPE C29  CEL1          -0.15        12.011       0
   19260 MEMB 44   POPE H91  HEL1           0.15         1.008       0
   19261 MEMB 44   POPE C210 CEL1          -0.15        12.011       0
   19262 MEMB 44   POPE H101 HEL1           0.15         1.008       0
   19263 MEMB 44   POPE C211 CTL2          -0.18        12.011       0
   19264 MEMB 44   POPE H11R HAL2           0.09         1.008       0
   19265 MEMB 44   POPE H11S HAL2           0.09         1.008       0
   19266 MEMB 44   POPE C212 CTL2          -0.18        12.011       0
   19267 MEMB 44   POPE H12R HAL2           0.09         1.008       0
   19268 MEMB 44   POPE H12S HAL2           0.09         1.008       0
   19269 MEMB 44   POPE C213 CTL2          -0.18        12.011       0
   19270 MEMB 44   POPE H13R HAL2           0.09         1.008       0
   19271 MEMB 44   POPE H13S HAL2           0.09         1.008       0
   19272 MEMB 44   POPE C214 CTL2          -0.18        12.011       0
   19273 MEMB 44   POPE H14R HAL2           0.09         1.008       0
   19274 MEMB 44   POPE H14S HAL2           0.09         1.008       0
   19275 MEMB 44   POPE C215 CTL2          -0.18        12.011       0
   19276 MEMB 44   POPE H15R HAL2           0.09         1.008       0
   19277 MEMB 44   POPE H15S HAL2           0.09         1.008       0
   19278 MEMB 44   POPE C216 CTL2          -0.18        12.011       0
   19279 MEMB 44   POPE H16R HAL2           0.09         1.008       0
   19280 MEMB 44   POPE H16S HAL2           0.09         1.008       0
   19281 MEMB 44   POPE C217 CTL2          -0.18        12.011       0
   19282 MEMB 44   POPE H17R HAL2           0.09         1.008       0
   19283 MEMB 44   POPE H17S HAL2           0.09         1.008       0
   19284 MEMB 44   POPE C218 CTL3          -0.27        12.011       0
   19285 MEMB 44   POPE H18R HAL3           0.09         1.008       0
   19286 MEMB 44   POPE H18S HAL3           0.09         1.008       0
   19287 MEMB 44   POPE H18T HAL3           0.09         1.008       0
   19288 MEMB 44   POPE C33  CTL2          -0.18        12.011       0
   19289 MEMB 44   POPE H3X  HAL2           0.09         1.008       0
   19290 MEMB 44   POPE H3Y  HAL2           0.09         1.008       0
   19291 MEMB 44   POPE C34  CTL2          -0.18        12.011       0
   19292 MEMB 44   POPE H4X  HAL2           0.09         1.008       0
   19293 MEMB 44   POPE H4Y  HAL2           0.09         1.008       0
   19294 MEMB 44   POPE C35  CTL2          -0.18        12.011       0
   19295 MEMB 44   POPE H5X  HAL2           0.09         1.008       0
   19296 MEMB 44   POPE H5Y  HAL2           0.09         1.008       0
   19297 MEMB 44   POPE C36  CTL2          -0.18        12.011       0
   19298 MEMB 44   POPE H6X  HAL2           0.09         1.008       0
   19299 MEMB 44   POPE H6Y  HAL2           0.09         1.008       0
   19300 MEMB 44   POPE C37  CTL2          -0.18        12.011       0
   19301 MEMB 44   POPE H7X  HAL2           0.09         1.008       0
   19302 MEMB 44   POPE H7Y  HAL2           0.09         1.008       0
   19303 MEMB 44   POPE C38  CTL2          -0.18        12.011       0
   19304 MEMB 44   POPE H8X  HAL2           0.09         1.008       0
   19305 MEMB 44   POPE H8Y  HAL2           0.09         1.008       0
   19306 MEMB 44   POPE C39  CTL2          -0.18        12.011       0
   19307 MEMB 44   POPE H9X  HAL2           0.09         1.008       0
   19308 MEMB 44   POPE H9Y  HAL2           0.09         1.008       0
   19309 MEMB 44   POPE C310 CTL2          -0.18        12.011       0
   19310 MEMB 44   POPE H10X HAL2           0.09         1.008       0
   19311 MEMB 44   POPE H10Y HAL2           0.09         1.008       0
   19312 MEMB 44   POPE C311 CTL2          -0.18        12.011       0
   19313 MEMB 44   POPE H11X HAL2           0.09         1.008       0
   19314 MEMB 44   POPE H11Y HAL2           0.09         1.008       0
   19315 MEMB 44   POPE C312 CTL2          -0.18        12.011       0
   19316 MEMB 44   POPE H12X HAL2           0.09         1.008       0
   19317 MEMB 44   POPE H12Y HAL2           0.09         1.008       0
   19318 MEMB 44   POPE C313 CTL2          -0.18        12.011       0
   19319 MEMB 44   POPE H13X HAL2           0.09         1.008       0
   19320 MEMB 44   POPE H13Y HAL2           0.09         1.008       0
   19321 MEMB 44   POPE C314 CTL2          -0.18        12.011       0
   19322 MEMB 44   POPE H14X HAL2           0.09         1.008       0
   19323 MEMB 44   POPE H14Y HAL2           0.09         1.008       0
   19324 MEMB 44   POPE C315 CTL2          -0.18        12.011       0
   19325 MEMB 44   POPE H15X HAL2           0.09         1.008       0
   19326 MEMB 44   POPE H15Y HAL2           0.09         1.008       0
   19327 MEMB 44   POPE C316 CTL3          -0.27        12.011       0
   19328 MEMB 44   POPE H16X HAL3           0.09         1.008       0
   19329 MEMB 44   POPE H16Y HAL3           0.09         1.008       0
   19330 MEMB 44   POPE H16Z HAL3           0.09         1.008       0
   19331 MEMB 45   POPC N    NTL            -0.6        14.007       0
   19332 MEMB 45   POPC C12  CTL2           -0.1        12.011       0
   19333 MEMB 45   POPC H12A HL             0.25         1.008       0
   19334 MEMB 45   POPC H12B HL             0.25         1.008       0
   19335 MEMB 45   POPC C13  CTL5          -0.35        12.011       0
   19336 MEMB 45   POPC H13A HL             0.25         1.008       0
   19337 MEMB 45   POPC H13B HL             0.25         1.008       0
   19338 MEMB 45   POPC H13C HL             0.25         1.008       0
   19339 MEMB 45   POPC C14  CTL5          -0.35        12.011       0
   19340 MEMB 45   POPC H14A HL             0.25         1.008       0
   19341 MEMB 45   POPC H14B HL             0.25         1.008       0
   19342 MEMB 45   POPC H14C HL             0.25         1.008       0
   19343 MEMB 45   POPC C15  CTL5          -0.35        12.011       0
   19344 MEMB 45   POPC H15A HL             0.25         1.008       0
   19345 MEMB 45   POPC H15B HL             0.25         1.008       0
   19346 MEMB 45   POPC H15C HL             0.25         1.008       0
   19347 MEMB 45   POPC C11  CTL2          -0.08        12.011       0
   19348 MEMB 45   POPC H11A HAL2           0.09         1.008       0
   19349 MEMB 45   POPC H11B HAL2           0.09         1.008       0
   19350 MEMB 45   POPC P    PL              1.5        30.974       0
   19351 MEMB 45   POPC O13  O2L           -0.78       15.9994       0
   19352 MEMB 45   POPC O14  O2L           -0.78       15.9994       0
   19353 MEMB 45   POPC O12  OSLP          -0.57       15.9994       0
   19354 MEMB 45   POPC O11  OSLP          -0.57       15.9994       0
   19355 MEMB 45   POPC C1   CTL2          -0.08        12.011       0
   19356 MEMB 45   POPC HA   HAL2           0.09         1.008       0
   19357 MEMB 45   POPC HB   HAL2           0.09         1.008       0
   19358 MEMB 45   POPC C2   CTL1           0.17        12.011       0
   19359 MEMB 45   POPC HS   HAL1           0.09         1.008       0
   19360 MEMB 45   POPC O21  OSL           -0.49       15.9994       0
   19361 MEMB 45   POPC C21  CL              0.9        12.011       0
   19362 MEMB 45   POPC O22  OBL           -0.63       15.9994       0
   19363 MEMB 45   POPC C22  CTL2          -0.22        12.011       0
   19364 MEMB 45   POPC H2R  HAL2           0.09         1.008       0
   19365 MEMB 45   POPC H2S  HAL2           0.09         1.008       0
   19366 MEMB 45   POPC C3   CTL2           0.08        12.011       0
   19367 MEMB 45   POPC HX   HAL2           0.09         1.008       0
   19368 MEMB 45   POPC HY   HAL2           0.09         1.008       0
   19369 MEMB 45   POPC O31  OSL           -0.49       15.9994       0
   19370 MEMB 45   POPC C31  CL              0.9        12.011       0
   19371 MEMB 45   POPC O32  OBL           -0.63       15.9994       0
   19372 MEMB 45   POPC C32  CTL2          -0.22        12.011       0
   19373 MEMB 45   POPC H2X  HAL2           0.09         1.008       0
   19374 MEMB 45   POPC H2Y  HAL2           0.09         1.008       0
   19375 MEMB 45   POPC C23  CTL2          -0.18        12.011       0
   19376 MEMB 45   POPC H3R  HAL2           0.09         1.008       0
   19377 MEMB 45   POPC H3S  HAL2           0.09         1.008       0
   19378 MEMB 45   POPC C24  CTL2          -0.18        12.011       0
   19379 MEMB 45   POPC H4R  HAL2           0.09         1.008       0
   19380 MEMB 45   POPC H4S  HAL2           0.09         1.008       0
   19381 MEMB 45   POPC C25  CTL2          -0.18        12.011       0
   19382 MEMB 45   POPC H5R  HAL2           0.09         1.008       0
   19383 MEMB 45   POPC H5S  HAL2           0.09         1.008       0
   19384 MEMB 45   POPC C26  CTL2          -0.18        12.011       0
   19385 MEMB 45   POPC H6R  HAL2           0.09         1.008       0
   19386 MEMB 45   POPC H6S  HAL2           0.09         1.008       0
   19387 MEMB 45   POPC C27  CTL2          -0.18        12.011       0
   19388 MEMB 45   POPC H7R  HAL2           0.09         1.008       0
   19389 MEMB 45   POPC H7S  HAL2           0.09         1.008       0
   19390 MEMB 45   POPC C28  CTL2          -0.18        12.011       0
   19391 MEMB 45   POPC H8R  HAL2           0.09         1.008       0
   19392 MEMB 45   POPC H8S  HAL2           0.09         1.008       0
   19393 MEMB 45   POPC C29  CEL1          -0.15        12.011       0
   19394 MEMB 45   POPC H91  HEL1           0.15         1.008       0
   19395 MEMB 45   POPC C210 CEL1          -0.15        12.011       0
   19396 MEMB 45   POPC H101 HEL1           0.15         1.008       0
   19397 MEMB 45   POPC C211 CTL2          -0.18        12.011       0
   19398 MEMB 45   POPC H11R HAL2           0.09         1.008       0
   19399 MEMB 45   POPC H11S HAL2           0.09         1.008       0
   19400 MEMB 45   POPC C212 CTL2          -0.18        12.011       0
   19401 MEMB 45   POPC H12R HAL2           0.09         1.008       0
   19402 MEMB 45   POPC H12S HAL2           0.09         1.008       0
   19403 MEMB 45   POPC C213 CTL2          -0.18        12.011       0
   19404 MEMB 45   POPC H13R HAL2           0.09         1.008       0
   19405 MEMB 45   POPC H13S HAL2           0.09         1.008       0
   19406 MEMB 45   POPC C214 CTL2          -0.18        12.011       0
   19407 MEMB 45   POPC H14R HAL2           0.09         1.008       0
   19408 MEMB 45   POPC H14S HAL2           0.09         1.008       0
   19409 MEMB 45   POPC C215 CTL2          -0.18        12.011       0
   19410 MEMB 45   POPC H15R HAL2           0.09         1.008       0
   19411 MEMB 45   POPC H15S HAL2           0.09         1.008       0
   19412 MEMB 45   POPC C216 CTL2          -0.18        12.011       0
   19413 MEMB 45   POPC H16R HAL2           0.09         1.008       0
   19414 MEMB 45   POPC H16S HAL2           0.09         1.008       0
   19415 MEMB 45   POPC C217 CTL2          -0.18        12.011       0
   19416 MEMB 45   POPC H17R HAL2           0.09         1.008       0
   19417 MEMB 45   POPC H17S HAL2           0.09         1.008       0
   19418 MEMB 45   POPC C218 CTL3          -0.27        12.011       0
   19419 MEMB 45   POPC H18R HAL3           0.09         1.008       0
   19420 MEMB 45   POPC H18S HAL3           0.09         1.008       0
   19421 MEMB 45   POPC H18T HAL3           0.09         1.008       0
   19422 MEMB 45   POPC C33  CTL2          -0.18        12.011       0
   19423 MEMB 45   POPC H3X  HAL2           0.09         1.008       0
   19424 MEMB 45   POPC H3Y  HAL2           0.09         1.008       0
   19425 MEMB 45   POPC C34  CTL2          -0.18        12.011       0
   19426 MEMB 45   POPC H4X  HAL2           0.09         1.008       0
   19427 MEMB 45   POPC H4Y  HAL2           0.09         1.008       0
   19428 MEMB 45   POPC C35  CTL2          -0.18        12.011       0
   19429 MEMB 45   POPC H5X  HAL2           0.09         1.008       0
   19430 MEMB 45   POPC H5Y  HAL2           0.09         1.008       0
   19431 MEMB 45   POPC C36  CTL2          -0.18        12.011       0
   19432 MEMB 45   POPC H6X  HAL2           0.09         1.008       0
   19433 MEMB 45   POPC H6Y  HAL2           0.09         1.008       0
   19434 MEMB 45   POPC C37  CTL2          -0.18        12.011       0
   19435 MEMB 45   POPC H7X  HAL2           0.09         1.008       0
   19436 MEMB 45   POPC H7Y  HAL2           0.09         1.008       0
   19437 MEMB 45   POPC C38  CTL2          -0.18        12.011       0
   19438 MEMB 45   POPC H8X  HAL2           0.09         1.008       0
   19439 MEMB 45   POPC H8Y  HAL2           0.09         1.008       0
   19440 MEMB 45   POPC C39  CTL2          -0.18        12.011       0
   19441 MEMB 45   POPC H9X  HAL2           0.09         1.008       0
   19442 MEMB 45   POPC H9Y  HAL2           0.09         1.008       0
   19443 MEMB 45   POPC C310 CTL2          -0.18        12.011       0
   19444 MEMB 45   POPC H10X HAL2           0.09         1.008       0
   19445 MEMB 45   POPC H10Y HAL2           0.09         1.008       0
   19446 MEMB 45   POPC C311 CTL2          -0.18        12.011       0
   19447 MEMB 45   POPC H11X HAL2           0.09         1.008       0
   19448 MEMB 45   POPC H11Y HAL2           0.09         1.008       0
   19449 MEMB 45   POPC C312 CTL2          -0.18        12.011       0
   19450 MEMB 45   POPC H12X HAL2           0.09         1.008       0
   19451 MEMB 45   POPC H12Y HAL2           0.09         1.008       0
   19452 MEMB 45   POPC C313 CTL2          -0.18        12.011       0
   19453 MEMB 45   POPC H13X HAL2           0.09         1.008       0
   19454 MEMB 45   POPC H13Y HAL2           0.09         1.008       0
   19455 MEMB 45   POPC C314 CTL2          -0.18        12.011       0
   19456 MEMB 45   POPC H14X HAL2           0.09         1.008       0
   19457 MEMB 45   POPC H14Y HAL2           0.09         1.008       0
   19458 MEMB 45   POPC C315 CTL2          -0.18        12.011       0
   19459 MEMB 45   POPC H15X HAL2           0.09         1.008       0
   19460 MEMB 45   POPC H15Y HAL2           0.09         1.008       0
   19461 MEMB 45   POPC C316 CTL3          -0.27        12.011       0
   19462 MEMB 45   POPC H16X HAL3           0.09         1.008       0
   19463 MEMB 45   POPC H16Y HAL3           0.09         1.008       0
   19464 MEMB 45   POPC H16Z HAL3           0.09         1.008       0
   19465 MEMB 46   POPE N    NH3L           -0.3        14.007       0
   19466 MEMB 46   POPE HN1  HCL            0.33         1.008       0
   19467 MEMB 46   POPE HN2  HCL            0.33         1.008       0
   19468 MEMB 46   POPE HN3  HCL            0.33         1.008       0
   19469 MEMB 46   POPE C12  CTL2           0.13        12.011       0
   19470 MEMB 46   POPE H12A HAL2           0.09         1.008       0
   19471 MEMB 46   POPE H12B HAL2           0.09         1.008       0
   19472 MEMB 46   POPE C11  CTL2          -0.08        12.011       0
   19473 MEMB 46   POPE H11A HAL2           0.09         1.008       0
   19474 MEMB 46   POPE H11B HAL2           0.09         1.008       0
   19475 MEMB 46   POPE P    PL              1.5        30.974       0
   19476 MEMB 46   POPE O13  O2L           -0.78       15.9994       0
   19477 MEMB 46   POPE O14  O2L           -0.78       15.9994       0
   19478 MEMB 46   POPE O11  OSLP          -0.57       15.9994       0
   19479 MEMB 46   POPE O12  OSLP          -0.57       15.9994       0
   19480 MEMB 46   POPE C1   CTL2          -0.08        12.011       0
   19481 MEMB 46   POPE HA   HAL2           0.09         1.008       0
   19482 MEMB 46   POPE HB   HAL2           0.09         1.008       0
   19483 MEMB 46   POPE C2   CTL1           0.17        12.011       0
   19484 MEMB 46   POPE HS   HAL1           0.09         1.008       0
   19485 MEMB 46   POPE O21  OSL           -0.49       15.9994       0
   19486 MEMB 46   POPE C21  CL              0.9        12.011       0
   19487 MEMB 46   POPE O22  OBL           -0.63       15.9994       0
   19488 MEMB 46   POPE C22  CTL2          -0.22        12.011       0
   19489 MEMB 46   POPE H2R  HAL2           0.09         1.008       0
   19490 MEMB 46   POPE H2S  HAL2           0.09         1.008       0
   19491 MEMB 46   POPE C3   CTL2           0.08        12.011       0
   19492 MEMB 46   POPE HX   HAL2           0.09         1.008       0
   19493 MEMB 46   POPE HY   HAL2           0.09         1.008       0
   19494 MEMB 46   POPE O31  OSL           -0.49       15.9994       0
   19495 MEMB 46   POPE C31  CL              0.9        12.011       0
   19496 MEMB 46   POPE O32  OBL           -0.63       15.9994       0
   19497 MEMB 46   POPE C32  CTL2          -0.22        12.011       0
   19498 MEMB 46   POPE H2X  HAL2           0.09         1.008       0
   19499 MEMB 46   POPE H2Y  HAL2           0.09         1.008       0
   19500 MEMB 46   POPE C23  CTL2          -0.18        12.011       0
   19501 MEMB 46   POPE H3R  HAL2           0.09         1.008       0
   19502 MEMB 46   POPE H3S  HAL2           0.09         1.008       0
   19503 MEMB 46   POPE C24  CTL2          -0.18        12.011       0
   19504 MEMB 46   POPE H4R  HAL2           0.09         1.008       0
   19505 MEMB 46   POPE H4S  HAL2           0.09         1.008       0
   19506 MEMB 46   POPE C25  CTL2          -0.18        12.011       0
   19507 MEMB 46   POPE H5R  HAL2           0.09         1.008       0
   19508 MEMB 46   POPE H5S  HAL2           0.09         1.008       0
   19509 MEMB 46   POPE C26  CTL2          -0.18        12.011       0
   19510 MEMB 46   POPE H6R  HAL2           0.09         1.008       0
   19511 MEMB 46   POPE H6S  HAL2           0.09         1.008       0
   19512 MEMB 46   POPE C27  CTL2          -0.18        12.011       0
   19513 MEMB 46   POPE H7R  HAL2           0.09         1.008       0
   19514 MEMB 46   POPE H7S  HAL2           0.09         1.008       0
   19515 MEMB 46   POPE C28  CTL2          -0.18        12.011       0
   19516 MEMB 46   POPE H8R  HAL2           0.09         1.008       0
   19517 MEMB 46   POPE H8S  HAL2           0.09         1.008       0
   19518 MEMB 46   POPE C29  CEL1          -0.15        12.011       0
   19519 MEMB 46   POPE H91  HEL1           0.15         1.008       0
   19520 MEMB 46   POPE C210 CEL1          -0.15        12.011       0
   19521 MEMB 46   POPE H101 HEL1           0.15         1.008       0
   19522 MEMB 46   POPE C211 CTL2          -0.18        12.011       0
   19523 MEMB 46   POPE H11R HAL2           0.09         1.008       0
   19524 MEMB 46   POPE H11S HAL2           0.09         1.008       0
   19525 MEMB 46   POPE C212 CTL2          -0.18        12.011       0
   19526 MEMB 46   POPE H12R HAL2           0.09         1.008       0
   19527 MEMB 46   POPE H12S HAL2           0.09         1.008       0
   19528 MEMB 46   POPE C213 CTL2          -0.18        12.011       0
   19529 MEMB 46   POPE H13R HAL2           0.09         1.008       0
   19530 MEMB 46   POPE H13S HAL2           0.09         1.008       0
   19531 MEMB 46   POPE C214 CTL2          -0.18        12.011       0
   19532 MEMB 46   POPE H14R HAL2           0.09         1.008       0
   19533 MEMB 46   POPE H14S HAL2           0.09         1.008       0
   19534 MEMB 46   POPE C215 CTL2          -0.18        12.011       0
   19535 MEMB 46   POPE H15R HAL2           0.09         1.008       0
   19536 MEMB 46   POPE H15S HAL2           0.09         1.008       0
   19537 MEMB 46   POPE C216 CTL2          -0.18        12.011       0
   19538 MEMB 46   POPE H16R HAL2           0.09         1.008       0
   19539 MEMB 46   POPE H16S HAL2           0.09         1.008       0
   19540 MEMB 46   POPE C217 CTL2          -0.18        12.011       0
   19541 MEMB 46   POPE H17R HAL2           0.09         1.008       0
   19542 MEMB 46   POPE H17S HAL2           0.09         1.008       0
   19543 MEMB 46   POPE C218 CTL3          -0.27        12.011       0
   19544 MEMB 46   POPE H18R HAL3           0.09         1.008       0
   19545 MEMB 46   POPE H18S HAL3           0.09         1.008       0
   19546 MEMB 46   POPE H18T HAL3           0.09         1.008       0
   19547 MEMB 46   POPE C33  CTL2          -0.18        12.011       0
   19548 MEMB 46   POPE H3X  HAL2           0.09         1.008       0
   19549 MEMB 46   POPE H3Y  HAL2           0.09         1.008       0
   19550 MEMB 46   POPE C34  CTL2          -0.18        12.011       0
   19551 MEMB 46   POPE H4X  HAL2           0.09         1.008       0
   19552 MEMB 46   POPE H4Y  HAL2           0.09         1.008       0
   19553 MEMB 46   POPE C35  CTL2          -0.18        12.011       0
   19554 MEMB 46   POPE H5X  HAL2           0.09         1.008       0
   19555 MEMB 46   POPE H5Y  HAL2           0.09         1.008       0
   19556 MEMB 46   POPE C36  CTL2          -0.18        12.011       0
   19557 MEMB 46   POPE H6X  HAL2           0.09         1.008       0
   19558 MEMB 46   POPE H6Y  HAL2           0.09         1.008       0
   19559 MEMB 46   POPE C37  CTL2          -0.18        12.011       0
   19560 MEMB 46   POPE H7X  HAL2           0.09         1.008       0
   19561 MEMB 46   POPE H7Y  HAL2           0.09         1.008       0
   19562 MEMB 46   POPE C38  CTL2          -0.18        12.011       0
   19563 MEMB 46   POPE H8X  HAL2           0.09         1.008       0
   19564 MEMB 46   POPE H8Y  HAL2           0.09         1.008       0
   19565 MEMB 46   POPE C39  CTL2          -0.18        12.011       0
   19566 MEMB 46   POPE H9X  HAL2           0.09         1.008       0
   19567 MEMB 46   POPE H9Y  HAL2           0.09         1.008       0
   19568 MEMB 46   POPE C310 CTL2          -0.18        12.011       0
   19569 MEMB 46   POPE H10X HAL2           0.09         1.008       0
   19570 MEMB 46   POPE H10Y HAL2           0.09         1.008       0
   19571 MEMB 46   POPE C311 CTL2          -0.18        12.011       0
   19572 MEMB 46   POPE H11X HAL2           0.09         1.008       0
   19573 MEMB 46   POPE H11Y HAL2           0.09         1.008       0
   19574 MEMB 46   POPE C312 CTL2          -0.18        12.011       0
   19575 MEMB 46   POPE H12X HAL2           0.09         1.008       0
   19576 MEMB 46   POPE H12Y HAL2           0.09         1.008       0
   19577 MEMB 46   POPE C313 CTL2          -0.18        12.011       0
   19578 MEMB 46   POPE H13X HAL2           0.09         1.008       0
   19579 MEMB 46   POPE H13Y HAL2           0.09         1.008       0
   19580 MEMB 46   POPE C314 CTL2          -0.18        12.011       0
   19581 MEMB 46   POPE H14X HAL2           0.09         1.008       0
   19582 MEMB 46   POPE H14Y HAL2           0.09         1.008       0
   19583 MEMB 46   POPE C315 CTL2          -0.18        12.011       0
   19584 MEMB 46   POPE H15X HAL2           0.09         1.008       0
   19585 MEMB 46   POPE H15Y HAL2           0.09         1.008       0
   19586 MEMB 46   POPE C316 CTL3          -0.27        12.011       0
   19587 MEMB 46   POPE H16X HAL3           0.09         1.008       0
   19588 MEMB 46   POPE H16Y HAL3           0.09         1.008       0
   19589 MEMB 46   POPE H16Z HAL3           0.09         1.008       0
   19590 MEMB 47   POPE N    NH3L           -0.3        14.007       0
   19591 MEMB 47   POPE HN1  HCL            0.33         1.008       0
   19592 MEMB 47   POPE HN2  HCL            0.33         1.008       0
   19593 MEMB 47   POPE HN3  HCL            0.33         1.008       0
   19594 MEMB 47   POPE C12  CTL2           0.13        12.011       0
   19595 MEMB 47   POPE H12A HAL2           0.09         1.008       0
   19596 MEMB 47   POPE H12B HAL2           0.09         1.008       0
   19597 MEMB 47   POPE C11  CTL2          -0.08        12.011       0
   19598 MEMB 47   POPE H11A HAL2           0.09         1.008       0
   19599 MEMB 47   POPE H11B HAL2           0.09         1.008       0
   19600 MEMB 47   POPE P    PL              1.5        30.974       0
   19601 MEMB 47   POPE O13  O2L           -0.78       15.9994       0
   19602 MEMB 47   POPE O14  O2L           -0.78       15.9994       0
   19603 MEMB 47   POPE O11  OSLP          -0.57       15.9994       0
   19604 MEMB 47   POPE O12  OSLP          -0.57       15.9994       0
   19605 MEMB 47   POPE C1   CTL2          -0.08        12.011       0
   19606 MEMB 47   POPE HA   HAL2           0.09         1.008       0
   19607 MEMB 47   POPE HB   HAL2           0.09         1.008       0
   19608 MEMB 47   POPE C2   CTL1           0.17        12.011       0
   19609 MEMB 47   POPE HS   HAL1           0.09         1.008       0
   19610 MEMB 47   POPE O21  OSL           -0.49       15.9994       0
   19611 MEMB 47   POPE C21  CL              0.9        12.011       0
   19612 MEMB 47   POPE O22  OBL           -0.63       15.9994       0
   19613 MEMB 47   POPE C22  CTL2          -0.22        12.011       0
   19614 MEMB 47   POPE H2R  HAL2           0.09         1.008       0
   19615 MEMB 47   POPE H2S  HAL2           0.09         1.008       0
   19616 MEMB 47   POPE C3   CTL2           0.08        12.011       0
   19617 MEMB 47   POPE HX   HAL2           0.09         1.008       0
   19618 MEMB 47   POPE HY   HAL2           0.09         1.008       0
   19619 MEMB 47   POPE O31  OSL           -0.49       15.9994       0
   19620 MEMB 47   POPE C31  CL              0.9        12.011       0
   19621 MEMB 47   POPE O32  OBL           -0.63       15.9994       0
   19622 MEMB 47   POPE C32  CTL2          -0.22        12.011       0
   19623 MEMB 47   POPE H2X  HAL2           0.09         1.008       0
   19624 MEMB 47   POPE H2Y  HAL2           0.09         1.008       0
   19625 MEMB 47   POPE C23  CTL2          -0.18        12.011       0
   19626 MEMB 47   POPE H3R  HAL2           0.09         1.008       0
   19627 MEMB 47   POPE H3S  HAL2           0.09         1.008       0
   19628 MEMB 47   POPE C24  CTL2          -0.18        12.011       0
   19629 MEMB 47   POPE H4R  HAL2           0.09         1.008       0
   19630 MEMB 47   POPE H4S  HAL2           0.09         1.008       0
   19631 MEMB 47   POPE C25  CTL2          -0.18        12.011       0
   19632 MEMB 47   POPE H5R  HAL2           0.09         1.008       0
   19633 MEMB 47   POPE H5S  HAL2           0.09         1.008       0
   19634 MEMB 47   POPE C26  CTL2          -0.18        12.011       0
   19635 MEMB 47   POPE H6R  HAL2           0.09         1.008       0
   19636 MEMB 47   POPE H6S  HAL2           0.09         1.008       0
   19637 MEMB 47   POPE C27  CTL2          -0.18        12.011       0
   19638 MEMB 47   POPE H7R  HAL2           0.09         1.008       0
   19639 MEMB 47   POPE H7S  HAL2           0.09         1.008       0
   19640 MEMB 47   POPE C28  CTL2          -0.18        12.011       0
   19641 MEMB 47   POPE H8R  HAL2           0.09         1.008       0
   19642 MEMB 47   POPE H8S  HAL2           0.09         1.008       0
   19643 MEMB 47   POPE C29  CEL1          -0.15        12.011       0
   19644 MEMB 47   POPE H91  HEL1           0.15         1.008       0
   19645 MEMB 47   POPE C210 CEL1          -0.15        12.011       0
   19646 MEMB 47   POPE H101 HEL1           0.15         1.008       0
   19647 MEMB 47   POPE C211 CTL2          -0.18        12.011       0
   19648 MEMB 47   POPE H11R HAL2           0.09         1.008       0
   19649 MEMB 47   POPE H11S HAL2           0.09         1.008       0
   19650 MEMB 47   POPE C212 CTL2          -0.18        12.011       0
   19651 MEMB 47   POPE H12R HAL2           0.09         1.008       0
   19652 MEMB 47   POPE H12S HAL2           0.09         1.008       0
   19653 MEMB 47   POPE C213 CTL2          -0.18        12.011       0
   19654 MEMB 47   POPE H13R HAL2           0.09         1.008       0
   19655 MEMB 47   POPE H13S HAL2           0.09         1.008       0
   19656 MEMB 47   POPE C214 CTL2          -0.18        12.011       0
   19657 MEMB 47   POPE H14R HAL2           0.09         1.008       0
   19658 MEMB 47   POPE H14S HAL2           0.09         1.008       0
   19659 MEMB 47   POPE C215 CTL2          -0.18        12.011       0
   19660 MEMB 47   POPE H15R HAL2           0.09         1.008       0
   19661 MEMB 47   POPE H15S HAL2           0.09         1.008       0
   19662 MEMB 47   POPE C216 CTL2          -0.18        12.011       0
   19663 MEMB 47   POPE H16R HAL2           0.09         1.008       0
   19664 MEMB 47   POPE H16S HAL2           0.09         1.008       0
   19665 MEMB 47   POPE C217 CTL2          -0.18        12.011       0
   19666 MEMB 47   POPE H17R HAL2           0.09         1.008       0
   19667 MEMB 47   POPE H17S HAL2           0.09         1.008       0
   19668 MEMB 47   POPE C218 CTL3          -0.27        12.011       0
   19669 MEMB 47   POPE H18R HAL3           0.09         1.008       0
   19670 MEMB 47   POPE H18S HAL3           0.09         1.008       0
   19671 MEMB 47   POPE H18T HAL3           0.09         1.008       0
   19672 MEMB 47   POPE C33  CTL2          -0.18        12.011       0
   19673 MEMB 47   POPE H3X  HAL2           0.09         1.008       0
   19674 MEMB 47   POPE H3Y  HAL2           0.09         1.008       0
   19675 MEMB 47   POPE C34  CTL2          -0.18        12.011       0
   19676 MEMB 47   POPE H4X  HAL2           0.09         1.008       0
   19677 MEMB 47   POPE H4Y  HAL2           0.09         1.008       0
   19678 MEMB 47   POPE C35  CTL2          -0.18        12.011       0
   19679 MEMB 47   POPE H5X  HAL2           0.09         1.008       0
   19680 MEMB 47   POPE H5Y  HAL2           0.09         1.008       0
   19681 MEMB 47   POPE C36  CTL2          -0.18        12.011       0
   19682 MEMB 47   POPE H6X  HAL2           0.09         1.008       0
   19683 MEMB 47   POPE H6Y  HAL2           0.09         1.008       0
   19684 MEMB 47   POPE C37  CTL2          -0.18        12.011       0
   19685 MEMB 47   POPE H7X  HAL2           0.09         1.008       0
   19686 MEMB 47   POPE H7Y  HAL2           0.09         1.008       0
   19687 MEMB 47   POPE C38  CTL2          -0.18        12.011       0
   19688 MEMB 47   POPE H8X  HAL2           0.09         1.008       0
   19689 MEMB 47   POPE H8Y  HAL2           0.09         1.008       0
   19690 MEMB 47   POPE C39  CTL2          -0.18        12.011       0
   19691 MEMB 47   POPE H9X  HAL2           0.09         1.008       0
   19692 MEMB 47   POPE H9Y  HAL2           0.09         1.008       0
   19693 MEMB 47   POPE C310 CTL2          -0.18        12.011       0
   19694 MEMB 47   POPE H10X HAL2           0.09         1.008       0
   19695 MEMB 47   POPE H10Y HAL2           0.09         1.008       0
   19696 MEMB 47   POPE C311 CTL2          -0.18        12.011       0
   19697 MEMB 47   POPE H11X HAL2           0.09         1.008       0
   19698 MEMB 47   POPE H11Y HAL2           0.09         1.008       0
   19699 MEMB 47   POPE C312 CTL2          -0.18        12.011       0
   19700 MEMB 47   POPE H12X HAL2           0.09         1.008       0
   19701 MEMB 47   POPE H12Y HAL2           0.09         1.008       0
   19702 MEMB 47   POPE C313 CTL2          -0.18        12.011       0
   19703 MEMB 47   POPE H13X HAL2           0.09         1.008       0
   19704 MEMB 47   POPE H13Y HAL2           0.09         1.008       0
   19705 MEMB 47   POPE C314 CTL2          -0.18        12.011       0
   19706 MEMB 47   POPE H14X HAL2           0.09         1.008       0
   19707 MEMB 47   POPE H14Y HAL2           0.09         1.008       0
   19708 MEMB 47   POPE C315 CTL2          -0.18        12.011       0
   19709 MEMB 47   POPE H15X HAL2           0.09         1.008       0
   19710 MEMB 47   POPE H15Y HAL2           0.09         1.008       0
   19711 MEMB 47   POPE C316 CTL3          -0.27        12.011       0
   19712 MEMB 47   POPE H16X HAL3           0.09         1.008       0
   19713 MEMB 47   POPE H16Y HAL3           0.09         1.008       0
   19714 MEMB 47   POPE H16Z HAL3           0.09         1.008       0
   19715 MEMB 48   POPE N    NH3L           -0.3        14.007       0
   19716 MEMB 48   POPE HN1  HCL            0.33         1.008       0
   19717 MEMB 48   POPE HN2  HCL            0.33         1.008       0
   19718 MEMB 48   POPE HN3  HCL            0.33         1.008       0
   19719 MEMB 48   POPE C12  CTL2           0.13        12.011       0
   19720 MEMB 48   POPE H12A HAL2           0.09         1.008       0
   19721 MEMB 48   POPE H12B HAL2           0.09         1.008       0
   19722 MEMB 48   POPE C11  CTL2          -0.08        12.011       0
   19723 MEMB 48   POPE H11A HAL2           0.09         1.008       0
   19724 MEMB 48   POPE H11B HAL2           0.09         1.008       0
   19725 MEMB 48   POPE P    PL              1.5        30.974       0
   19726 MEMB 48   POPE O13  O2L           -0.78       15.9994       0
   19727 MEMB 48   POPE O14  O2L           -0.78       15.9994       0
   19728 MEMB 48   POPE O11  OSLP          -0.57       15.9994       0
   19729 MEMB 48   POPE O12  OSLP          -0.57       15.9994       0
   19730 MEMB 48   POPE C1   CTL2          -0.08        12.011       0
   19731 MEMB 48   POPE HA   HAL2           0.09         1.008       0
   19732 MEMB 48   POPE HB   HAL2           0.09         1.008       0
   19733 MEMB 48   POPE C2   CTL1           0.17        12.011       0
   19734 MEMB 48   POPE HS   HAL1           0.09         1.008       0
   19735 MEMB 48   POPE O21  OSL           -0.49       15.9994       0
   19736 MEMB 48   POPE C21  CL              0.9        12.011       0
   19737 MEMB 48   POPE O22  OBL           -0.63       15.9994       0
   19738 MEMB 48   POPE C22  CTL2          -0.22        12.011       0
   19739 MEMB 48   POPE H2R  HAL2           0.09         1.008       0
   19740 MEMB 48   POPE H2S  HAL2           0.09         1.008       0
   19741 MEMB 48   POPE C3   CTL2           0.08        12.011       0
   19742 MEMB 48   POPE HX   HAL2           0.09         1.008       0
   19743 MEMB 48   POPE HY   HAL2           0.09         1.008       0
   19744 MEMB 48   POPE O31  OSL           -0.49       15.9994       0
   19745 MEMB 48   POPE C31  CL              0.9        12.011       0
   19746 MEMB 48   POPE O32  OBL           -0.63       15.9994       0
   19747 MEMB 48   POPE C32  CTL2          -0.22        12.011       0
   19748 MEMB 48   POPE H2X  HAL2           0.09         1.008       0
   19749 MEMB 48   POPE H2Y  HAL2           0.09         1.008       0
   19750 MEMB 48   POPE C23  CTL2          -0.18        12.011       0
   19751 MEMB 48   POPE H3R  HAL2           0.09         1.008       0
   19752 MEMB 48   POPE H3S  HAL2           0.09         1.008       0
   19753 MEMB 48   POPE C24  CTL2          -0.18        12.011       0
   19754 MEMB 48   POPE H4R  HAL2           0.09         1.008       0
   19755 MEMB 48   POPE H4S  HAL2           0.09         1.008       0
   19756 MEMB 48   POPE C25  CTL2          -0.18        12.011       0
   19757 MEMB 48   POPE H5R  HAL2           0.09         1.008       0
   19758 MEMB 48   POPE H5S  HAL2           0.09         1.008       0
   19759 MEMB 48   POPE C26  CTL2          -0.18        12.011       0
   19760 MEMB 48   POPE H6R  HAL2           0.09         1.008       0
   19761 MEMB 48   POPE H6S  HAL2           0.09         1.008       0
   19762 MEMB 48   POPE C27  CTL2          -0.18        12.011       0
   19763 MEMB 48   POPE H7R  HAL2           0.09         1.008       0
   19764 MEMB 48   POPE H7S  HAL2           0.09         1.008       0
   19765 MEMB 48   POPE C28  CTL2          -0.18        12.011       0
   19766 MEMB 48   POPE H8R  HAL2           0.09         1.008       0
   19767 MEMB 48   POPE H8S  HAL2           0.09         1.008       0
   19768 MEMB 48   POPE C29  CEL1          -0.15        12.011       0
   19769 MEMB 48   POPE H91  HEL1           0.15         1.008       0
   19770 MEMB 48   POPE C210 CEL1          -0.15        12.011       0
   19771 MEMB 48   POPE H101 HEL1           0.15         1.008       0
   19772 MEMB 48   POPE C211 CTL2          -0.18        12.011       0
   19773 MEMB 48   POPE H11R HAL2           0.09         1.008       0
   19774 MEMB 48   POPE H11S HAL2           0.09         1.008       0
   19775 MEMB 48   POPE C212 CTL2          -0.18        12.011       0
   19776 MEMB 48   POPE H12R HAL2           0.09         1.008       0
   19777 MEMB 48   POPE H12S HAL2           0.09         1.008       0
   19778 MEMB 48   POPE C213 CTL2          -0.18        12.011       0
   19779 MEMB 48   POPE H13R HAL2           0.09         1.008       0
   19780 MEMB 48   POPE H13S HAL2           0.09         1.008       0
   19781 MEMB 48   POPE C214 CTL2          -0.18        12.011       0
   19782 MEMB 48   POPE H14R HAL2           0.09         1.008       0
   19783 MEMB 48   POPE H14S HAL2           0.09         1.008       0
   19784 MEMB 48   POPE C215 CTL2          -0.18        12.011       0
   19785 MEMB 48   POPE H15R HAL2           0.09         1.008       0
   19786 MEMB 48   POPE H15S HAL2           0.09         1.008       0
   19787 MEMB 48   POPE C216 CTL2          -0.18        12.011       0
   19788 MEMB 48   POPE H16R HAL2           0.09         1.008       0
   19789 MEMB 48   POPE H16S HAL2           0.09         1.008       0
   19790 MEMB 48   POPE C217 CTL2          -0.18        12.011       0
   19791 MEMB 48   POPE H17R HAL2           0.09         1.008       0
   19792 MEMB 48   POPE H17S HAL2           0.09         1.008       0
   19793 MEMB 48   POPE C218 CTL3          -0.27        12.011       0
   19794 MEMB 48   POPE H18R HAL3           0.09         1.008       0
   19795 MEMB 48   POPE H18S HAL3           0.09         1.008       0
   19796 MEMB 48   POPE H18T HAL3           0.09         1.008       0
   19797 MEMB 48   POPE C33  CTL2          -0.18        12.011       0
   19798 MEMB 48   POPE H3X  HAL2           0.09         1.008       0
   19799 MEMB 48   POPE H3Y  HAL2           0.09         1.008       0
   19800 MEMB 48   POPE C34  CTL2          -0.18        12.011       0
   19801 MEMB 48   POPE H4X  HAL2           0.09         1.008       0
   19802 MEMB 48   POPE H4Y  HAL2           0.09         1.008       0
   19803 MEMB 48   POPE C35  CTL2          -0.18        12.011       0
   19804 MEMB 48   POPE H5X  HAL2           0.09         1.008       0
   19805 MEMB 48   POPE H5Y  HAL2           0.09         1.008       0
   19806 MEMB 48   POPE C36  CTL2          -0.18        12.011       0
   19807 MEMB 48   POPE H6X  HAL2           0.09         1.008       0
   19808 MEMB 48   POPE H6Y  HAL2           0.09         1.008       0
   19809 MEMB 48   POPE C37  CTL2          -0.18        12.011       0
   19810 MEMB 48   POPE H7X  HAL2           0.09         1.008       0
   19811 MEMB 48   POPE H7Y  HAL2           0.09         1.008       0
   19812 MEMB 48   POPE C38  CTL2          -0.18        12.011       0
   19813 MEMB 48   POPE H8X  HAL2           0.09         1.008       0
   19814 MEMB 48   POPE H8Y  HAL2           0.09         1.008       0
   19815 MEMB 48   POPE C39  CTL2          -0.18        12.011       0
   19816 MEMB 48   POPE H9X  HAL2           0.09         1.008       0
   19817 MEMB 48   POPE H9Y  HAL2           0.09         1.008       0
   19818 MEMB 48   POPE C310 CTL2          -0.18        12.011       0
   19819 MEMB 48   POPE H10X HAL2           0.09         1.008       0
   19820 MEMB 48   POPE H10Y HAL2           0.09         1.008       0
   19821 MEMB 48   POPE C311 CTL2          -0.18        12.011       0
   19822 MEMB 48   POPE H11X HAL2           0.09         1.008       0
   19823 MEMB 48   POPE H11Y HAL2           0.09         1.008       0
   19824 MEMB 48   POPE C312 CTL2          -0.18        12.011       0
   19825 MEMB 48   POPE H12X HAL2           0.09         1.008       0
   19826 MEMB 48   POPE H12Y HAL2           0.09         1.008       0
   19827 MEMB 48   POPE C313 CTL2          -0.18        12.011       0
   19828 MEMB 48   POPE H13X HAL2           0.09         1.008       0
   19829 MEMB 48   POPE H13Y HAL2           0.09         1.008       0
   19830 MEMB 48   POPE C314 CTL2          -0.18        12.011       0
   19831 MEMB 48   POPE H14X HAL2           0.09         1.008       0
   19832 MEMB 48   POPE H14Y HAL2           0.09         1.008       0
   19833 MEMB 48   POPE C315 CTL2          -0.18        12.011       0
   19834 MEMB 48   POPE H15X HAL2           0.09         1.008       0
   19835 MEMB 48   POPE H15Y HAL2           0.09         1.008       0
   19836 MEMB 48   POPE C316 CTL3          -0.27        12.011       0
   19837 MEMB 48   POPE H16X HAL3           0.09         1.008       0
   19838 MEMB 48   POPE H16Y HAL3           0.09         1.008       0
   19839 MEMB 48   POPE H16Z HAL3           0.09         1.008       0
   19840 MEMB 49   PSM  N    NTL            -0.6        14.007       0
   19841 MEMB 49   PSM  C15  CTL5          -0.35        12.011       0
   19842 MEMB 49   PSM  H15A HL             0.25         1.008       0
   19843 MEMB 49   PSM  H15B HL             0.25         1.008       0
   19844 MEMB 49   PSM  H15C HL             0.25         1.008       0
   19845 MEMB 49   PSM  C14  CTL5          -0.35        12.011       0
   19846 MEMB 49   PSM  H14A HL             0.25         1.008       0
   19847 MEMB 49   PSM  H14B HL             0.25         1.008       0
   19848 MEMB 49   PSM  H14C HL             0.25         1.008       0
   19849 MEMB 49   PSM  C13  CTL5          -0.35        12.011       0
   19850 MEMB 49   PSM  H13A HL             0.25         1.008       0
   19851 MEMB 49   PSM  H13B HL             0.25         1.008       0
   19852 MEMB 49   PSM  H13C HL             0.25         1.008       0
   19853 MEMB 49   PSM  C12  CTL2           -0.1        12.011       0
   19854 MEMB 49   PSM  H12A HL             0.25         1.008       0
   19855 MEMB 49   PSM  H12B HL             0.25         1.008       0
   19856 MEMB 49   PSM  C11  CTL2          -0.08        12.011       0
   19857 MEMB 49   PSM  H11A HAL2           0.09         1.008       0
   19858 MEMB 49   PSM  H11B HAL2           0.09         1.008       0
   19859 MEMB 49   PSM  P    PL              1.5        30.974       0
   19860 MEMB 49   PSM  O13  O2L           -0.78       15.9994       0
   19861 MEMB 49   PSM  O14  O2L           -0.78       15.9994       0
   19862 MEMB 49   PSM  O11  OSLP          -0.57       15.9994       0
   19863 MEMB 49   PSM  O12  OSLP          -0.57       15.9994       0
   19864 MEMB 49   PSM  C1S  CTL2          -0.08        12.011       0
   19865 MEMB 49   PSM  H1S  HAL2           0.09         1.008       0
   19866 MEMB 49   PSM  H1T  HAL2           0.09         1.008       0
   19867 MEMB 49   PSM  NF   NHL            -0.7        14.007       0
   19868 MEMB 49   PSM  HNF  H              0.35         1.008       0
   19869 MEMB 49   PSM  C2S  CTL1            0.3        12.011       0
   19870 MEMB 49   PSM  H2S  HAL1           0.05         1.008       0
   19871 MEMB 49   PSM  C3S  CTO1            0.5        12.011       0
   19872 MEMB 49   PSM  H3S  HAL1          -0.11         1.008       0
   19873 MEMB 49   PSM  O3   OHL           -0.69       15.9994       0
   19874 MEMB 49   PSM  HO3  HOL             0.3         1.008       0
   19875 MEMB 49   PSM  C4S  CEL3          -0.15        12.011       0
   19876 MEMB 49   PSM  H4S  HEL1           0.15         1.008       0
   19877 MEMB 49   PSM  C5S  CEL3          -0.15        12.011       0
   19878 MEMB 49   PSM  H5S  HEL1           0.15         1.008       0
   19879 MEMB 49   PSM  C6S  CTL2          -0.18        12.011       0
   19880 MEMB 49   PSM  H6S  HAL2           0.09         1.008       0
   19881 MEMB 49   PSM  H6T  HAL2           0.09         1.008       0
   19882 MEMB 49   PSM  C7S  CTL2          -0.18        12.011       0
   19883 MEMB 49   PSM  H7S  HAL2           0.09         1.008       0
   19884 MEMB 49   PSM  H7T  HAL2           0.09         1.008       0
   19885 MEMB 49   PSM  C8S  CTL2          -0.18        12.011       0
   19886 MEMB 49   PSM  H8S  HAL2           0.09         1.008       0
   19887 MEMB 49   PSM  H8T  HAL2           0.09         1.008       0
   19888 MEMB 49   PSM  C9S  CTL2          -0.18        12.011       0
   19889 MEMB 49   PSM  H9S  HAL2           0.09         1.008       0
   19890 MEMB 49   PSM  H9T  HAL2           0.09         1.008       0
   19891 MEMB 49   PSM  C10S CTL2          -0.18        12.011       0
   19892 MEMB 49   PSM  H10S HAL2           0.09         1.008       0
   19893 MEMB 49   PSM  H10T HAL2           0.09         1.008       0
   19894 MEMB 49   PSM  C11S CTL2          -0.18        12.011       0
   19895 MEMB 49   PSM  H11S HAL2           0.09         1.008       0
   19896 MEMB 49   PSM  H11T HAL2           0.09         1.008       0
   19897 MEMB 49   PSM  C12S CTL2          -0.18        12.011       0
   19898 MEMB 49   PSM  H12S HAL2           0.09         1.008       0
   19899 MEMB 49   PSM  H12T HAL2           0.09         1.008       0
   19900 MEMB 49   PSM  C13S CTL2          -0.18        12.011       0
   19901 MEMB 49   PSM  H13S HAL2           0.09         1.008       0
   19902 MEMB 49   PSM  H13T HAL2           0.09         1.008       0
   19903 MEMB 49   PSM  C14S CTL2          -0.18        12.011       0
   19904 MEMB 49   PSM  H14S HAL2           0.09         1.008       0
   19905 MEMB 49   PSM  H14T HAL2           0.09         1.008       0
   19906 MEMB 49   PSM  C15S CTL2          -0.18        12.011       0
   19907 MEMB 49   PSM  H15S HAL2           0.09         1.008       0
   19908 MEMB 49   PSM  H15T HAL2           0.09         1.008       0
   19909 MEMB 49   PSM  C16S CTL2          -0.18        12.011       0
   19910 MEMB 49   PSM  H16S HAL2           0.09         1.008       0
   19911 MEMB 49   PSM  H16T HAL2           0.09         1.008       0
   19912 MEMB 49   PSM  C17S CTL2          -0.18        12.011       0
   19913 MEMB 49   PSM  H17S HAL2           0.09         1.008       0
   19914 MEMB 49   PSM  H17T HAL2           0.09         1.008       0
   19915 MEMB 49   PSM  C18S CTL3          -0.27        12.011       0
   19916 MEMB 49   PSM  H18S HAL3           0.09         1.008       0
   19917 MEMB 49   PSM  H18T HAL3           0.09         1.008       0
   19918 MEMB 49   PSM  H18U HAL3           0.09         1.008       0
   19919 MEMB 49   PSM  C1F  C              0.55        12.011       0
   19920 MEMB 49   PSM  OF   O              -0.6        15.999       0
   19921 MEMB 49   PSM  C2F  CTL2          -0.07        12.011       0
   19922 MEMB 49   PSM  H2F  HAL2           0.06         1.008       0
   19923 MEMB 49   PSM  H2G  HAL2           0.06         1.008       0
   19924 MEMB 49   PSM  C3F  CTL2          -0.18        12.011       0
   19925 MEMB 49   PSM  H3F  HAL2           0.09         1.008       0
   19926 MEMB 49   PSM  H3G  HAL2           0.09         1.008       0
   19927 MEMB 49   PSM  C4F  CTL2          -0.18        12.011       0
   19928 MEMB 49   PSM  H4F  HAL2           0.09         1.008       0
   19929 MEMB 49   PSM  H4G  HAL2           0.09         1.008       0
   19930 MEMB 49   PSM  C5F  CTL2          -0.18        12.011       0
   19931 MEMB 49   PSM  H5F  HAL2           0.09         1.008       0
   19932 MEMB 49   PSM  H5G  HAL2           0.09         1.008       0
   19933 MEMB 49   PSM  C6F  CTL2          -0.18        12.011       0
   19934 MEMB 49   PSM  H6F  HAL2           0.09         1.008       0
   19935 MEMB 49   PSM  H6G  HAL2           0.09         1.008       0
   19936 MEMB 49   PSM  C7F  CTL2          -0.18        12.011       0
   19937 MEMB 49   PSM  H7F  HAL2           0.09         1.008       0
   19938 MEMB 49   PSM  H7G  HAL2           0.09         1.008       0
   19939 MEMB 49   PSM  C8F  CTL2          -0.18        12.011       0
   19940 MEMB 49   PSM  H8F  HAL2           0.09         1.008       0
   19941 MEMB 49   PSM  H8G  HAL2           0.09         1.008       0
   19942 MEMB 49   PSM  C9F  CTL2          -0.18        12.011       0
   19943 MEMB 49   PSM  H9F  HAL2           0.09         1.008       0
   19944 MEMB 49   PSM  H9G  HAL2           0.09         1.008       0
   19945 MEMB 49   PSM  C10F CTL2          -0.18        12.011       0
   19946 MEMB 49   PSM  H10F HAL2           0.09         1.008       0
   19947 MEMB 49   PSM  H10G HAL2           0.09         1.008       0
   19948 MEMB 49   PSM  C11F CTL2          -0.18        12.011       0
   19949 MEMB 49   PSM  H11F HAL2           0.09         1.008       0
   19950 MEMB 49   PSM  H11G HAL2           0.09         1.008       0
   19951 MEMB 49   PSM  C12F CTL2          -0.18        12.011       0
   19952 MEMB 49   PSM  H12F HAL2           0.09         1.008       0
   19953 MEMB 49   PSM  H12G HAL2           0.09         1.008       0
   19954 MEMB 49   PSM  C13F CTL2          -0.18        12.011       0
   19955 MEMB 49   PSM  H13F HAL2           0.09         1.008       0
   19956 MEMB 49   PSM  H13G HAL2           0.09         1.008       0
   19957 MEMB 49   PSM  C14F CTL2          -0.18        12.011       0
   19958 MEMB 49   PSM  H14F HAL2           0.09         1.008       0
   19959 MEMB 49   PSM  H14G HAL2           0.09         1.008       0
   19960 MEMB 49   PSM  C15F CTL2          -0.18        12.011       0
   19961 MEMB 49   PSM  H15F HAL2           0.09         1.008       0
   19962 MEMB 49   PSM  H15G HAL2           0.09         1.008       0
   19963 MEMB 49   PSM  C16F CTL3          -0.27        12.011       0
   19964 MEMB 49   PSM  H16F HAL3           0.09         1.008       0
   19965 MEMB 49   PSM  H16G HAL3           0.09         1.008       0
   19966 MEMB 49   PSM  H16H HAL3           0.09         1.008       0
   19967 MEMB 50   PSM  N    NTL            -0.6        14.007       0
   19968 MEMB 50   PSM  C15  CTL5          -0.35        12.011       0
   19969 MEMB 50   PSM  H15A HL             0.25         1.008       0
   19970 MEMB 50   PSM  H15B HL             0.25         1.008       0
   19971 MEMB 50   PSM  H15C HL             0.25         1.008       0
   19972 MEMB 50   PSM  C14  CTL5          -0.35        12.011       0
   19973 MEMB 50   PSM  H14A HL             0.25         1.008       0
   19974 MEMB 50   PSM  H14B HL             0.25         1.008       0
   19975 MEMB 50   PSM  H14C HL             0.25         1.008       0
   19976 MEMB 50   PSM  C13  CTL5          -0.35        12.011       0
   19977 MEMB 50   PSM  H13A HL             0.25         1.008       0
   19978 MEMB 50   PSM  H13B HL             0.25         1.008       0
   19979 MEMB 50   PSM  H13C HL             0.25         1.008       0
   19980 MEMB 50   PSM  C12  CTL2           -0.1        12.011       0
   19981 MEMB 50   PSM  H12A HL             0.25         1.008       0
   19982 MEMB 50   PSM  H12B HL             0.25         1.008       0
   19983 MEMB 50   PSM  C11  CTL2          -0.08        12.011       0
   19984 MEMB 50   PSM  H11A HAL2           0.09         1.008       0
   19985 MEMB 50   PSM  H11B HAL2           0.09         1.008       0
   19986 MEMB 50   PSM  P    PL              1.5        30.974       0
   19987 MEMB 50   PSM  O13  O2L           -0.78       15.9994       0
   19988 MEMB 50   PSM  O14  O2L           -0.78       15.9994       0
   19989 MEMB 50   PSM  O11  OSLP          -0.57       15.9994       0
   19990 MEMB 50   PSM  O12  OSLP          -0.57       15.9994       0
   19991 MEMB 50   PSM  C1S  CTL2          -0.08        12.011       0
   19992 MEMB 50   PSM  H1S  HAL2           0.09         1.008       0
   19993 MEMB 50   PSM  H1T  HAL2           0.09         1.008       0
   19994 MEMB 50   PSM  NF   NHL            -0.7        14.007       0
   19995 MEMB 50   PSM  HNF  H              0.35         1.008       0
   19996 MEMB 50   PSM  C2S  CTL1            0.3        12.011       0
   19997 MEMB 50   PSM  H2S  HAL1           0.05         1.008       0
   19998 MEMB 50   PSM  C3S  CTO1            0.5        12.011       0
   19999 MEMB 50   PSM  H3S  HAL1          -0.11         1.008       0
   20000 MEMB 50   PSM  O3   OHL           -0.69       15.9994       0
   20001 MEMB 50   PSM  HO3  HOL             0.3         1.008       0
   20002 MEMB 50   PSM  C4S  CEL3          -0.15        12.011       0
   20003 MEMB 50   PSM  H4S  HEL1           0.15         1.008       0
   20004 MEMB 50   PSM  C5S  CEL3          -0.15        12.011       0
   20005 MEMB 50   PSM  H5S  HEL1           0.15         1.008       0
   20006 MEMB 50   PSM  C6S  CTL2          -0.18        12.011       0
   20007 MEMB 50   PSM  H6S  HAL2           0.09         1.008       0
   20008 MEMB 50   PSM  H6T  HAL2           0.09         1.008       0
   20009 MEMB 50   PSM  C7S  CTL2          -0.18        12.011       0
   20010 MEMB 50   PSM  H7S  HAL2           0.09         1.008       0
   20011 MEMB 50   PSM  H7T  HAL2           0.09         1.008       0
   20012 MEMB 50   PSM  C8S  CTL2          -0.18        12.011       0
   20013 MEMB 50   PSM  H8S  HAL2           0.09         1.008       0
   20014 MEMB 50   PSM  H8T  HAL2           0.09         1.008       0
   20015 MEMB 50   PSM  C9S  CTL2          -0.18        12.011       0
   20016 MEMB 50   PSM  H9S  HAL2           0.09         1.008       0
   20017 MEMB 50   PSM  H9T  HAL2           0.09         1.008       0
   20018 MEMB 50   PSM  C10S CTL2          -0.18        12.011       0
   20019 MEMB 50   PSM  H10S HAL2           0.09         1.008       0
   20020 MEMB 50   PSM  H10T HAL2           0.09         1.008       0
   20021 MEMB 50   PSM  C11S CTL2          -0.18        12.011       0
   20022 MEMB 50   PSM  H11S HAL2           0.09         1.008       0
   20023 MEMB 50   PSM  H11T HAL2           0.09         1.008       0
   20024 MEMB 50   PSM  C12S CTL2          -0.18        12.011       0
   20025 MEMB 50   PSM  H12S HAL2           0.09         1.008       0
   20026 MEMB 50   PSM  H12T HAL2           0.09         1.008       0
   20027 MEMB 50   PSM  C13S CTL2          -0.18        12.011       0
   20028 MEMB 50   PSM  H13S HAL2           0.09         1.008       0
   20029 MEMB 50   PSM  H13T HAL2           0.09         1.008       0
   20030 MEMB 50   PSM  C14S CTL2          -0.18        12.011       0
   20031 MEMB 50   PSM  H14S HAL2           0.09         1.008       0
   20032 MEMB 50   PSM  H14T HAL2           0.09         1.008       0
   20033 MEMB 50   PSM  C15S CTL2          -0.18        12.011       0
   20034 MEMB 50   PSM  H15S HAL2           0.09         1.008       0
   20035 MEMB 50   PSM  H15T HAL2           0.09         1.008       0
   20036 MEMB 50   PSM  C16S CTL2          -0.18        12.011       0
   20037 MEMB 50   PSM  H16S HAL2           0.09         1.008       0
   20038 MEMB 50   PSM  H16T HAL2           0.09         1.008       0
   20039 MEMB 50   PSM  C17S CTL2          -0.18        12.011       0
   20040 MEMB 50   PSM  H17S HAL2           0.09         1.008       0
   20041 MEMB 50   PSM  H17T HAL2           0.09         1.008       0
   20042 MEMB 50   PSM  C18S CTL3          -0.27        12.011       0
   20043 MEMB 50   PSM  H18S HAL3           0.09         1.008       0
   20044 MEMB 50   PSM  H18T HAL3           0.09         1.008       0
   20045 MEMB 50   PSM  H18U HAL3           0.09         1.008       0
   20046 MEMB 50   PSM  C1F  C              0.55        12.011       0
   20047 MEMB 50   PSM  OF   O              -0.6        15.999       0
   20048 MEMB 50   PSM  C2F  CTL2          -0.07        12.011       0
   20049 MEMB 50   PSM  H2F  HAL2           0.06         1.008       0
   20050 MEMB 50   PSM  H2G  HAL2           0.06         1.008       0
   20051 MEMB 50   PSM  C3F  CTL2          -0.18        12.011       0
   20052 MEMB 50   PSM  H3F  HAL2           0.09         1.008       0
   20053 MEMB 50   PSM  H3G  HAL2           0.09         1.008       0
   20054 MEMB 50   PSM  C4F  CTL2          -0.18        12.011       0
   20055 MEMB 50   PSM  H4F  HAL2           0.09         1.008       0
   20056 MEMB 50   PSM  H4G  HAL2           0.09         1.008       0
   20057 MEMB 50   PSM  C5F  CTL2          -0.18        12.011       0
   20058 MEMB 50   PSM  H5F  HAL2           0.09         1.008       0
   20059 MEMB 50   PSM  H5G  HAL2           0.09         1.008       0
   20060 MEMB 50   PSM  C6F  CTL2          -0.18        12.011       0
   20061 MEMB 50   PSM  H6F  HAL2           0.09         1.008       0
   20062 MEMB 50   PSM  H6G  HAL2           0.09         1.008       0
   20063 MEMB 50   PSM  C7F  CTL2          -0.18        12.011       0
   20064 MEMB 50   PSM  H7F  HAL2           0.09         1.008       0
   20065 MEMB 50   PSM  H7G  HAL2           0.09         1.008       0
   20066 MEMB 50   PSM  C8F  CTL2          -0.18        12.011       0
   20067 MEMB 50   PSM  H8F  HAL2           0.09         1.008       0
   20068 MEMB 50   PSM  H8G  HAL2           0.09         1.008       0
   20069 MEMB 50   PSM  C9F  CTL2          -0.18        12.011       0
   20070 MEMB 50   PSM  H9F  HAL2           0.09         1.008       0
   20071 MEMB 50   PSM  H9G  HAL2           0.09         1.008       0
   20072 MEMB 50   PSM  C10F CTL2          -0.18        12.011       0
   20073 MEMB 50   PSM  H10F HAL2           0.09         1.008       0
   20074 MEMB 50   PSM  H10G HAL2           0.09         1.008       0
   20075 MEMB 50   PSM  C11F CTL2          -0.18        12.011       0
   20076 MEMB 50   PSM  H11F HAL2           0.09         1.008       0
   20077 MEMB 50   PSM  H11G HAL2           0.09         1.008       0
   20078 MEMB 50   PSM  C12F CTL2          -0.18        12.011       0
   20079 MEMB 50   PSM  H12F HAL2           0.09         1.008       0
   20080 MEMB 50   PSM  H12G HAL2           0.09         1.008       0
   20081 MEMB 50   PSM  C13F CTL2          -0.18        12.011       0
   20082 MEMB 50   PSM  H13F HAL2           0.09         1.008       0
   20083 MEMB 50   PSM  H13G HAL2           0.09         1.008       0
   20084 MEMB 50   PSM  C14F CTL2          -0.18        12.011       0
   20085 MEMB 50   PSM  H14F HAL2           0.09         1.008       0
   20086 MEMB 50   PSM  H14G HAL2           0.09         1.008       0
   20087 MEMB 50   PSM  C15F CTL2          -0.18        12.011       0
   20088 MEMB 50   PSM  H15F HAL2           0.09         1.008       0
   20089 MEMB 50   PSM  H15G HAL2           0.09         1.008       0
   20090 MEMB 50   PSM  C16F CTL3          -0.27        12.011       0
   20091 MEMB 50   PSM  H16F HAL3           0.09         1.008       0
   20092 MEMB 50   PSM  H16G HAL3           0.09         1.008       0
   20093 MEMB 50   PSM  H16H HAL3           0.09         1.008       0
   20094 MEMB 51   POPE N    NH3L           -0.3        14.007       0
   20095 MEMB 51   POPE HN1  HCL            0.33         1.008       0
   20096 MEMB 51   POPE HN2  HCL            0.33         1.008       0
   20097 MEMB 51   POPE HN3  HCL            0.33         1.008       0
   20098 MEMB 51   POPE C12  CTL2           0.13        12.011       0
   20099 MEMB 51   POPE H12A HAL2           0.09         1.008       0
   20100 MEMB 51   POPE H12B HAL2           0.09         1.008       0
   20101 MEMB 51   POPE C11  CTL2          -0.08        12.011       0
   20102 MEMB 51   POPE H11A HAL2           0.09         1.008       0
   20103 MEMB 51   POPE H11B HAL2           0.09         1.008       0
   20104 MEMB 51   POPE P    PL              1.5        30.974       0
   20105 MEMB 51   POPE O13  O2L           -0.78       15.9994       0
   20106 MEMB 51   POPE O14  O2L           -0.78       15.9994       0
   20107 MEMB 51   POPE O11  OSLP          -0.57       15.9994       0
   20108 MEMB 51   POPE O12  OSLP          -0.57       15.9994       0
   20109 MEMB 51   POPE C1   CTL2          -0.08        12.011       0
   20110 MEMB 51   POPE HA   HAL2           0.09         1.008       0
   20111 MEMB 51   POPE HB   HAL2           0.09         1.008       0
   20112 MEMB 51   POPE C2   CTL1           0.17        12.011       0
   20113 MEMB 51   POPE HS   HAL1           0.09         1.008       0
   20114 MEMB 51   POPE O21  OSL           -0.49       15.9994       0
   20115 MEMB 51   POPE C21  CL              0.9        12.011       0
   20116 MEMB 51   POPE O22  OBL           -0.63       15.9994       0
   20117 MEMB 51   POPE C22  CTL2          -0.22        12.011       0
   20118 MEMB 51   POPE H2R  HAL2           0.09         1.008       0
   20119 MEMB 51   POPE H2S  HAL2           0.09         1.008       0
   20120 MEMB 51   POPE C3   CTL2           0.08        12.011       0
   20121 MEMB 51   POPE HX   HAL2           0.09         1.008       0
   20122 MEMB 51   POPE HY   HAL2           0.09         1.008       0
   20123 MEMB 51   POPE O31  OSL           -0.49       15.9994       0
   20124 MEMB 51   POPE C31  CL              0.9        12.011       0
   20125 MEMB 51   POPE O32  OBL           -0.63       15.9994       0
   20126 MEMB 51   POPE C32  CTL2          -0.22        12.011       0
   20127 MEMB 51   POPE H2X  HAL2           0.09         1.008       0
   20128 MEMB 51   POPE H2Y  HAL2           0.09         1.008       0
   20129 MEMB 51   POPE C23  CTL2          -0.18        12.011       0
   20130 MEMB 51   POPE H3R  HAL2           0.09         1.008       0
   20131 MEMB 51   POPE H3S  HAL2           0.09         1.008       0
   20132 MEMB 51   POPE C24  CTL2          -0.18        12.011       0
   20133 MEMB 51   POPE H4R  HAL2           0.09         1.008       0
   20134 MEMB 51   POPE H4S  HAL2           0.09         1.008       0
   20135 MEMB 51   POPE C25  CTL2          -0.18        12.011       0
   20136 MEMB 51   POPE H5R  HAL2           0.09         1.008       0
   20137 MEMB 51   POPE H5S  HAL2           0.09         1.008       0
   20138 MEMB 51   POPE C26  CTL2          -0.18        12.011       0
   20139 MEMB 51   POPE H6R  HAL2           0.09         1.008       0
   20140 MEMB 51   POPE H6S  HAL2           0.09         1.008       0
   20141 MEMB 51   POPE C27  CTL2          -0.18        12.011       0
   20142 MEMB 51   POPE H7R  HAL2           0.09         1.008       0
   20143 MEMB 51   POPE H7S  HAL2           0.09         1.008       0
   20144 MEMB 51   POPE C28  CTL2          -0.18        12.011       0
   20145 MEMB 51   POPE H8R  HAL2           0.09         1.008       0
   20146 MEMB 51   POPE H8S  HAL2           0.09         1.008       0
   20147 MEMB 51   POPE C29  CEL1          -0.15        12.011       0
   20148 MEMB 51   POPE H91  HEL1           0.15         1.008       0
   20149 MEMB 51   POPE C210 CEL1          -0.15        12.011       0
   20150 MEMB 51   POPE H101 HEL1           0.15         1.008       0
   20151 MEMB 51   POPE C211 CTL2          -0.18        12.011       0
   20152 MEMB 51   POPE H11R HAL2           0.09         1.008       0
   20153 MEMB 51   POPE H11S HAL2           0.09         1.008       0
   20154 MEMB 51   POPE C212 CTL2          -0.18        12.011       0
   20155 MEMB 51   POPE H12R HAL2           0.09         1.008       0
   20156 MEMB 51   POPE H12S HAL2           0.09         1.008       0
   20157 MEMB 51   POPE C213 CTL2          -0.18        12.011       0
   20158 MEMB 51   POPE H13R HAL2           0.09         1.008       0
   20159 MEMB 51   POPE H13S HAL2           0.09         1.008       0
   20160 MEMB 51   POPE C214 CTL2          -0.18        12.011       0
   20161 MEMB 51   POPE H14R HAL2           0.09         1.008       0
   20162 MEMB 51   POPE H14S HAL2           0.09         1.008       0
   20163 MEMB 51   POPE C215 CTL2          -0.18        12.011       0
   20164 MEMB 51   POPE H15R HAL2           0.09         1.008       0
   20165 MEMB 51   POPE H15S HAL2           0.09         1.008       0
   20166 MEMB 51   POPE C216 CTL2          -0.18        12.011       0
   20167 MEMB 51   POPE H16R HAL2           0.09         1.008       0
   20168 MEMB 51   POPE H16S HAL2           0.09         1.008       0
   20169 MEMB 51   POPE C217 CTL2          -0.18        12.011       0
   20170 MEMB 51   POPE H17R HAL2           0.09         1.008       0
   20171 MEMB 51   POPE H17S HAL2           0.09         1.008       0
   20172 MEMB 51   POPE C218 CTL3          -0.27        12.011       0
   20173 MEMB 51   POPE H18R HAL3           0.09         1.008       0
   20174 MEMB 51   POPE H18S HAL3           0.09         1.008       0
   20175 MEMB 51   POPE H18T HAL3           0.09         1.008       0
   20176 MEMB 51   POPE C33  CTL2          -0.18        12.011       0
   20177 MEMB 51   POPE H3X  HAL2           0.09         1.008       0
   20178 MEMB 51   POPE H3Y  HAL2           0.09         1.008       0
   20179 MEMB 51   POPE C34  CTL2          -0.18        12.011       0
   20180 MEMB 51   POPE H4X  HAL2           0.09         1.008       0
   20181 MEMB 51   POPE H4Y  HAL2           0.09         1.008       0
   20182 MEMB 51   POPE C35  CTL2          -0.18        12.011       0
   20183 MEMB 51   POPE H5X  HAL2           0.09         1.008       0
   20184 MEMB 51   POPE H5Y  HAL2           0.09         1.008       0
   20185 MEMB 51   POPE C36  CTL2          -0.18        12.011       0
   20186 MEMB 51   POPE H6X  HAL2           0.09         1.008       0
   20187 MEMB 51   POPE H6Y  HAL2           0.09         1.008       0
   20188 MEMB 51   POPE C37  CTL2          -0.18        12.011       0
   20189 MEMB 51   POPE H7X  HAL2           0.09         1.008       0
   20190 MEMB 51   POPE H7Y  HAL2           0.09         1.008       0
   20191 MEMB 51   POPE C38  CTL2          -0.18        12.011       0
   20192 MEMB 51   POPE H8X  HAL2           0.09         1.008       0
   20193 MEMB 51   POPE H8Y  HAL2           0.09         1.008       0
   20194 MEMB 51   POPE C39  CTL2          -0.18        12.011       0
   20195 MEMB 51   POPE H9X  HAL2           0.09         1.008       0
   20196 MEMB 51   POPE H9Y  HAL2           0.09         1.008       0
   20197 MEMB 51   POPE C310 CTL2          -0.18        12.011       0
   20198 MEMB 51   POPE H10X HAL2           0.09         1.008       0
   20199 MEMB 51   POPE H10Y HAL2           0.09         1.008       0
   20200 MEMB 51   POPE C311 CTL2          -0.18        12.011       0
   20201 MEMB 51   POPE H11X HAL2           0.09         1.008       0
   20202 MEMB 51   POPE H11Y HAL2           0.09         1.008       0
   20203 MEMB 51   POPE C312 CTL2          -0.18        12.011       0
   20204 MEMB 51   POPE H12X HAL2           0.09         1.008       0
   20205 MEMB 51   POPE H12Y HAL2           0.09         1.008       0
   20206 MEMB 51   POPE C313 CTL2          -0.18        12.011       0
   20207 MEMB 51   POPE H13X HAL2           0.09         1.008       0
   20208 MEMB 51   POPE H13Y HAL2           0.09         1.008       0
   20209 MEMB 51   POPE C314 CTL2          -0.18        12.011       0
   20210 MEMB 51   POPE H14X HAL2           0.09         1.008       0
   20211 MEMB 51   POPE H14Y HAL2           0.09         1.008       0
   20212 MEMB 51   POPE C315 CTL2          -0.18        12.011       0
   20213 MEMB 51   POPE H15X HAL2           0.09         1.008       0
   20214 MEMB 51   POPE H15Y HAL2           0.09         1.008       0
   20215 MEMB 51   POPE C316 CTL3          -0.27        12.011       0
   20216 MEMB 51   POPE H16X HAL3           0.09         1.008       0
   20217 MEMB 51   POPE H16Y HAL3           0.09         1.008       0
   20218 MEMB 51   POPE H16Z HAL3           0.09         1.008       0
   20219 MEMB 52   POPE N    NH3L           -0.3        14.007       0
   20220 MEMB 52   POPE HN1  HCL            0.33         1.008       0
   20221 MEMB 52   POPE HN2  HCL            0.33         1.008       0
   20222 MEMB 52   POPE HN3  HCL            0.33         1.008       0
   20223 MEMB 52   POPE C12  CTL2           0.13        12.011       0
   20224 MEMB 52   POPE H12A HAL2           0.09         1.008       0
   20225 MEMB 52   POPE H12B HAL2           0.09         1.008       0
   20226 MEMB 52   POPE C11  CTL2          -0.08        12.011       0
   20227 MEMB 52   POPE H11A HAL2           0.09         1.008       0
   20228 MEMB 52   POPE H11B HAL2           0.09         1.008       0
   20229 MEMB 52   POPE P    PL              1.5        30.974       0
   20230 MEMB 52   POPE O13  O2L           -0.78       15.9994       0
   20231 MEMB 52   POPE O14  O2L           -0.78       15.9994       0
   20232 MEMB 52   POPE O11  OSLP          -0.57       15.9994       0
   20233 MEMB 52   POPE O12  OSLP          -0.57       15.9994       0
   20234 MEMB 52   POPE C1   CTL2          -0.08        12.011       0
   20235 MEMB 52   POPE HA   HAL2           0.09         1.008       0
   20236 MEMB 52   POPE HB   HAL2           0.09         1.008       0
   20237 MEMB 52   POPE C2   CTL1           0.17        12.011       0
   20238 MEMB 52   POPE HS   HAL1           0.09         1.008       0
   20239 MEMB 52   POPE O21  OSL           -0.49       15.9994       0
   20240 MEMB 52   POPE C21  CL              0.9        12.011       0
   20241 MEMB 52   POPE O22  OBL           -0.63       15.9994       0
   20242 MEMB 52   POPE C22  CTL2          -0.22        12.011       0
   20243 MEMB 52   POPE H2R  HAL2           0.09         1.008       0
   20244 MEMB 52   POPE H2S  HAL2           0.09         1.008       0
   20245 MEMB 52   POPE C3   CTL2           0.08        12.011       0
   20246 MEMB 52   POPE HX   HAL2           0.09         1.008       0
   20247 MEMB 52   POPE HY   HAL2           0.09         1.008       0
   20248 MEMB 52   POPE O31  OSL           -0.49       15.9994       0
   20249 MEMB 52   POPE C31  CL              0.9        12.011       0
   20250 MEMB 52   POPE O32  OBL           -0.63       15.9994       0
   20251 MEMB 52   POPE C32  CTL2          -0.22        12.011       0
   20252 MEMB 52   POPE H2X  HAL2           0.09         1.008       0
   20253 MEMB 52   POPE H2Y  HAL2           0.09         1.008       0
   20254 MEMB 52   POPE C23  CTL2          -0.18        12.011       0
   20255 MEMB 52   POPE H3R  HAL2           0.09         1.008       0
   20256 MEMB 52   POPE H3S  HAL2           0.09         1.008       0
   20257 MEMB 52   POPE C24  CTL2          -0.18        12.011       0
   20258 MEMB 52   POPE H4R  HAL2           0.09         1.008       0
   20259 MEMB 52   POPE H4S  HAL2           0.09         1.008       0
   20260 MEMB 52   POPE C25  CTL2          -0.18        12.011       0
   20261 MEMB 52   POPE H5R  HAL2           0.09         1.008       0
   20262 MEMB 52   POPE H5S  HAL2           0.09         1.008       0
   20263 MEMB 52   POPE C26  CTL2          -0.18        12.011       0
   20264 MEMB 52   POPE H6R  HAL2           0.09         1.008       0
   20265 MEMB 52   POPE H6S  HAL2           0.09         1.008       0
   20266 MEMB 52   POPE C27  CTL2          -0.18        12.011       0
   20267 MEMB 52   POPE H7R  HAL2           0.09         1.008       0
   20268 MEMB 52   POPE H7S  HAL2           0.09         1.008       0
   20269 MEMB 52   POPE C28  CTL2          -0.18        12.011       0
   20270 MEMB 52   POPE H8R  HAL2           0.09         1.008       0
   20271 MEMB 52   POPE H8S  HAL2           0.09         1.008       0
   20272 MEMB 52   POPE C29  CEL1          -0.15        12.011       0
   20273 MEMB 52   POPE H91  HEL1           0.15         1.008       0
   20274 MEMB 52   POPE C210 CEL1          -0.15        12.011       0
   20275 MEMB 52   POPE H101 HEL1           0.15         1.008       0
   20276 MEMB 52   POPE C211 CTL2          -0.18        12.011       0
   20277 MEMB 52   POPE H11R HAL2           0.09         1.008       0
   20278 MEMB 52   POPE H11S HAL2           0.09         1.008       0
   20279 MEMB 52   POPE C212 CTL2          -0.18        12.011       0
   20280 MEMB 52   POPE H12R HAL2           0.09         1.008       0
   20281 MEMB 52   POPE H12S HAL2           0.09         1.008       0
   20282 MEMB 52   POPE C213 CTL2          -0.18        12.011       0
   20283 MEMB 52   POPE H13R HAL2           0.09         1.008       0
   20284 MEMB 52   POPE H13S HAL2           0.09         1.008       0
   20285 MEMB 52   POPE C214 CTL2          -0.18        12.011       0
   20286 MEMB 52   POPE H14R HAL2           0.09         1.008       0
   20287 MEMB 52   POPE H14S HAL2           0.09         1.008       0
   20288 MEMB 52   POPE C215 CTL2          -0.18        12.011       0
   20289 MEMB 52   POPE H15R HAL2           0.09         1.008       0
   20290 MEMB 52   POPE H15S HAL2           0.09         1.008       0
   20291 MEMB 52   POPE C216 CTL2          -0.18        12.011       0
   20292 MEMB 52   POPE H16R HAL2           0.09         1.008       0
   20293 MEMB 52   POPE H16S HAL2           0.09         1.008       0
   20294 MEMB 52   POPE C217 CTL2          -0.18        12.011       0
   20295 MEMB 52   POPE H17R HAL2           0.09         1.008       0
   20296 MEMB 52   POPE H17S HAL2           0.09         1.008       0
   20297 MEMB 52   POPE C218 CTL3          -0.27        12.011       0
   20298 MEMB 52   POPE H18R HAL3           0.09         1.008       0
   20299 MEMB 52   POPE H18S HAL3           0.09         1.008       0
   20300 MEMB 52   POPE H18T HAL3           0.09         1.008       0
   20301 MEMB 52   POPE C33  CTL2          -0.18        12.011       0
   20302 MEMB 52   POPE H3X  HAL2           0.09         1.008       0
   20303 MEMB 52   POPE H3Y  HAL2           0.09         1.008       0
   20304 MEMB 52   POPE C34  CTL2          -0.18        12.011       0
   20305 MEMB 52   POPE H4X  HAL2           0.09         1.008       0
   20306 MEMB 52   POPE H4Y  HAL2           0.09         1.008       0
   20307 MEMB 52   POPE C35  CTL2          -0.18        12.011       0
   20308 MEMB 52   POPE H5X  HAL2           0.09         1.008       0
   20309 MEMB 52   POPE H5Y  HAL2           0.09         1.008       0
   20310 MEMB 52   POPE C36  CTL2          -0.18        12.011       0
   20311 MEMB 52   POPE H6X  HAL2           0.09         1.008       0
   20312 MEMB 52   POPE H6Y  HAL2           0.09         1.008       0
   20313 MEMB 52   POPE C37  CTL2          -0.18        12.011       0
   20314 MEMB 52   POPE H7X  HAL2           0.09         1.008       0
   20315 MEMB 52   POPE H7Y  HAL2           0.09         1.008       0
   20316 MEMB 52   POPE C38  CTL2          -0.18        12.011       0
   20317 MEMB 52   POPE H8X  HAL2           0.09         1.008       0
   20318 MEMB 52   POPE H8Y  HAL2           0.09         1.008       0
   20319 MEMB 52   POPE C39  CTL2          -0.18        12.011       0
   20320 MEMB 52   POPE H9X  HAL2           0.09         1.008       0
   20321 MEMB 52   POPE H9Y  HAL2           0.09         1.008       0
   20322 MEMB 52   POPE C310 CTL2          -0.18        12.011       0
   20323 MEMB 52   POPE H10X HAL2           0.09         1.008       0
   20324 MEMB 52   POPE H10Y HAL2           0.09         1.008       0
   20325 MEMB 52   POPE C311 CTL2          -0.18        12.011       0
   20326 MEMB 52   POPE H11X HAL2           0.09         1.008       0
   20327 MEMB 52   POPE H11Y HAL2           0.09         1.008       0
   20328 MEMB 52   POPE C312 CTL2          -0.18        12.011       0
   20329 MEMB 52   POPE H12X HAL2           0.09         1.008       0
   20330 MEMB 52   POPE H12Y HAL2           0.09         1.008       0
   20331 MEMB 52   POPE C313 CTL2          -0.18        12.011       0
   20332 MEMB 52   POPE H13X HAL2           0.09         1.008       0
   20333 MEMB 52   POPE H13Y HAL2           0.09         1.008       0
   20334 MEMB 52   POPE C314 CTL2          -0.18        12.011       0
   20335 MEMB 52   POPE H14X HAL2           0.09         1.008       0
   20336 MEMB 52   POPE H14Y HAL2           0.09         1.008       0
   20337 MEMB 52   POPE C315 CTL2          -0.18        12.011       0
   20338 MEMB 52   POPE H15X HAL2           0.09         1.008       0
   20339 MEMB 52   POPE H15Y HAL2           0.09         1.008       0
   20340 MEMB 52   POPE C316 CTL3          -0.27        12.011       0
   20341 MEMB 52   POPE H16X HAL3           0.09         1.008       0
   20342 MEMB 52   POPE H16Y HAL3           0.09         1.008       0
   20343 MEMB 52   POPE H16Z HAL3           0.09         1.008       0
   20344 MEMB 53   PSM  N    NTL            -0.6        14.007       0
   20345 MEMB 53   PSM  C15  CTL5          -0.35        12.011       0
   20346 MEMB 53   PSM  H15A HL             0.25         1.008       0
   20347 MEMB 53   PSM  H15B HL             0.25         1.008       0
   20348 MEMB 53   PSM  H15C HL             0.25         1.008       0
   20349 MEMB 53   PSM  C14  CTL5          -0.35        12.011       0
   20350 MEMB 53   PSM  H14A HL             0.25         1.008       0
   20351 MEMB 53   PSM  H14B HL             0.25         1.008       0
   20352 MEMB 53   PSM  H14C HL             0.25         1.008       0
   20353 MEMB 53   PSM  C13  CTL5          -0.35        12.011       0
   20354 MEMB 53   PSM  H13A HL             0.25         1.008       0
   20355 MEMB 53   PSM  H13B HL             0.25         1.008       0
   20356 MEMB 53   PSM  H13C HL             0.25         1.008       0
   20357 MEMB 53   PSM  C12  CTL2           -0.1        12.011       0
   20358 MEMB 53   PSM  H12A HL             0.25         1.008       0
   20359 MEMB 53   PSM  H12B HL             0.25         1.008       0
   20360 MEMB 53   PSM  C11  CTL2          -0.08        12.011       0
   20361 MEMB 53   PSM  H11A HAL2           0.09         1.008       0
   20362 MEMB 53   PSM  H11B HAL2           0.09         1.008       0
   20363 MEMB 53   PSM  P    PL              1.5        30.974       0
   20364 MEMB 53   PSM  O13  O2L           -0.78       15.9994       0
   20365 MEMB 53   PSM  O14  O2L           -0.78       15.9994       0
   20366 MEMB 53   PSM  O11  OSLP          -0.57       15.9994       0
   20367 MEMB 53   PSM  O12  OSLP          -0.57       15.9994       0
   20368 MEMB 53   PSM  C1S  CTL2          -0.08        12.011       0
   20369 MEMB 53   PSM  H1S  HAL2           0.09         1.008       0
   20370 MEMB 53   PSM  H1T  HAL2           0.09         1.008       0
   20371 MEMB 53   PSM  NF   NHL            -0.7        14.007       0
   20372 MEMB 53   PSM  HNF  H              0.35         1.008       0
   20373 MEMB 53   PSM  C2S  CTL1            0.3        12.011       0
   20374 MEMB 53   PSM  H2S  HAL1           0.05         1.008       0
   20375 MEMB 53   PSM  C3S  CTO1            0.5        12.011       0
   20376 MEMB 53   PSM  H3S  HAL1          -0.11         1.008       0
   20377 MEMB 53   PSM  O3   OHL           -0.69       15.9994       0
   20378 MEMB 53   PSM  HO3  HOL             0.3         1.008       0
   20379 MEMB 53   PSM  C4S  CEL3          -0.15        12.011       0
   20380 MEMB 53   PSM  H4S  HEL1           0.15         1.008       0
   20381 MEMB 53   PSM  C5S  CEL3          -0.15        12.011       0
   20382 MEMB 53   PSM  H5S  HEL1           0.15         1.008       0
   20383 MEMB 53   PSM  C6S  CTL2          -0.18        12.011       0
   20384 MEMB 53   PSM  H6S  HAL2           0.09         1.008       0
   20385 MEMB 53   PSM  H6T  HAL2           0.09         1.008       0
   20386 MEMB 53   PSM  C7S  CTL2          -0.18        12.011       0
   20387 MEMB 53   PSM  H7S  HAL2           0.09         1.008       0
   20388 MEMB 53   PSM  H7T  HAL2           0.09         1.008       0
   20389 MEMB 53   PSM  C8S  CTL2          -0.18        12.011       0
   20390 MEMB 53   PSM  H8S  HAL2           0.09         1.008       0
   20391 MEMB 53   PSM  H8T  HAL2           0.09         1.008       0
   20392 MEMB 53   PSM  C9S  CTL2          -0.18        12.011       0
   20393 MEMB 53   PSM  H9S  HAL2           0.09         1.008       0
   20394 MEMB 53   PSM  H9T  HAL2           0.09         1.008       0
   20395 MEMB 53   PSM  C10S CTL2          -0.18        12.011       0
   20396 MEMB 53   PSM  H10S HAL2           0.09         1.008       0
   20397 MEMB 53   PSM  H10T HAL2           0.09         1.008       0
   20398 MEMB 53   PSM  C11S CTL2          -0.18        12.011       0
   20399 MEMB 53   PSM  H11S HAL2           0.09         1.008       0
   20400 MEMB 53   PSM  H11T HAL2           0.09         1.008       0
   20401 MEMB 53   PSM  C12S CTL2          -0.18        12.011       0
   20402 MEMB 53   PSM  H12S HAL2           0.09         1.008       0
   20403 MEMB 53   PSM  H12T HAL2           0.09         1.008       0
   20404 MEMB 53   PSM  C13S CTL2          -0.18        12.011       0
   20405 MEMB 53   PSM  H13S HAL2           0.09         1.008       0
   20406 MEMB 53   PSM  H13T HAL2           0.09         1.008       0
   20407 MEMB 53   PSM  C14S CTL2          -0.18        12.011       0
   20408 MEMB 53   PSM  H14S HAL2           0.09         1.008       0
   20409 MEMB 53   PSM  H14T HAL2           0.09         1.008       0
   20410 MEMB 53   PSM  C15S CTL2          -0.18        12.011       0
   20411 MEMB 53   PSM  H15S HAL2           0.09         1.008       0
   20412 MEMB 53   PSM  H15T HAL2           0.09         1.008       0
   20413 MEMB 53   PSM  C16S CTL2          -0.18        12.011       0
   20414 MEMB 53   PSM  H16S HAL2           0.09         1.008       0
   20415 MEMB 53   PSM  H16T HAL2           0.09         1.008       0
   20416 MEMB 53   PSM  C17S CTL2          -0.18        12.011       0
   20417 MEMB 53   PSM  H17S HAL2           0.09         1.008       0
   20418 MEMB 53   PSM  H17T HAL2           0.09         1.008       0
   20419 MEMB 53   PSM  C18S CTL3          -0.27        12.011       0
   20420 MEMB 53   PSM  H18S HAL3           0.09         1.008       0
   20421 MEMB 53   PSM  H18T HAL3           0.09         1.008       0
   20422 MEMB 53   PSM  H18U HAL3           0.09         1.008       0
   20423 MEMB 53   PSM  C1F  C              0.55        12.011       0
   20424 MEMB 53   PSM  OF   O              -0.6        15.999       0
   20425 MEMB 53   PSM  C2F  CTL2          -0.07        12.011       0
   20426 MEMB 53   PSM  H2F  HAL2           0.06         1.008       0
   20427 MEMB 53   PSM  H2G  HAL2           0.06         1.008       0
   20428 MEMB 53   PSM  C3F  CTL2          -0.18        12.011       0
   20429 MEMB 53   PSM  H3F  HAL2           0.09         1.008       0
   20430 MEMB 53   PSM  H3G  HAL2           0.09         1.008       0
   20431 MEMB 53   PSM  C4F  CTL2          -0.18        12.011       0
   20432 MEMB 53   PSM  H4F  HAL2           0.09         1.008       0
   20433 MEMB 53   PSM  H4G  HAL2           0.09         1.008       0
   20434 MEMB 53   PSM  C5F  CTL2          -0.18        12.011       0
   20435 MEMB 53   PSM  H5F  HAL2           0.09         1.008       0
   20436 MEMB 53   PSM  H5G  HAL2           0.09         1.008       0
   20437 MEMB 53   PSM  C6F  CTL2          -0.18        12.011       0
   20438 MEMB 53   PSM  H6F  HAL2           0.09         1.008       0
   20439 MEMB 53   PSM  H6G  HAL2           0.09         1.008       0
   20440 MEMB 53   PSM  C7F  CTL2          -0.18        12.011       0
   20441 MEMB 53   PSM  H7F  HAL2           0.09         1.008       0
   20442 MEMB 53   PSM  H7G  HAL2           0.09         1.008       0
   20443 MEMB 53   PSM  C8F  CTL2          -0.18        12.011       0
   20444 MEMB 53   PSM  H8F  HAL2           0.09         1.008       0
   20445 MEMB 53   PSM  H8G  HAL2           0.09         1.008       0
   20446 MEMB 53   PSM  C9F  CTL2          -0.18        12.011       0
   20447 MEMB 53   PSM  H9F  HAL2           0.09         1.008       0
   20448 MEMB 53   PSM  H9G  HAL2           0.09         1.008       0
   20449 MEMB 53   PSM  C10F CTL2          -0.18        12.011       0
   20450 MEMB 53   PSM  H10F HAL2           0.09         1.008       0
   20451 MEMB 53   PSM  H10G HAL2           0.09         1.008       0
   20452 MEMB 53   PSM  C11F CTL2          -0.18        12.011       0
   20453 MEMB 53   PSM  H11F HAL2           0.09         1.008       0
   20454 MEMB 53   PSM  H11G HAL2           0.09         1.008       0
   20455 MEMB 53   PSM  C12F CTL2          -0.18        12.011       0
   20456 MEMB 53   PSM  H12F HAL2           0.09         1.008       0
   20457 MEMB 53   PSM  H12G HAL2           0.09         1.008       0
   20458 MEMB 53   PSM  C13F CTL2          -0.18        12.011       0
   20459 MEMB 53   PSM  H13F HAL2           0.09         1.008       0
   20460 MEMB 53   PSM  H13G HAL2           0.09         1.008       0
   20461 MEMB 53   PSM  C14F CTL2          -0.18        12.011       0
   20462 MEMB 53   PSM  H14F HAL2           0.09         1.008       0
   20463 MEMB 53   PSM  H14G HAL2           0.09         1.008       0
   20464 MEMB 53   PSM  C15F CTL2          -0.18        12.011       0
   20465 MEMB 53   PSM  H15F HAL2           0.09         1.008       0
   20466 MEMB 53   PSM  H15G HAL2           0.09         1.008       0
   20467 MEMB 53   PSM  C16F CTL3          -0.27        12.011       0
   20468 MEMB 53   PSM  H16F HAL3           0.09         1.008       0
   20469 MEMB 53   PSM  H16G HAL3           0.09         1.008       0
   20470 MEMB 53   PSM  H16H HAL3           0.09         1.008       0
   20471 MEMB 54   POPS N    NH3L           -0.3        14.007       0
   20472 MEMB 54   POPS HN1  HCL            0.33         1.008       0
   20473 MEMB 54   POPS HN2  HCL            0.33         1.008       0
   20474 MEMB 54   POPS HN3  HCL            0.33         1.008       0
   20475 MEMB 54   POPS C12  CTL1           0.21        12.011       0
   20476 MEMB 54   POPS H12A HBL             0.1         1.008       0
   20477 MEMB 54   POPS C13  CCL            0.34        12.011       0
   20478 MEMB 54   POPS O13A OCL           -0.67       15.9994       0
   20479 MEMB 54   POPS O13B OCL           -0.67       15.9994       0
   20480 MEMB 54   POPS C11  CTL2          -0.08        12.011       0
   20481 MEMB 54   POPS H11A HAL2           0.09         1.008       0
   20482 MEMB 54   POPS H11B HAL2           0.09         1.008       0
   20483 MEMB 54   POPS P    PL              1.5        30.974       0
   20484 MEMB 54   POPS O13  O2L           -0.78       15.9994       0
   20485 MEMB 54   POPS O14  O2L           -0.78       15.9994       0
   20486 MEMB 54   POPS O12  OSLP          -0.57       15.9994       0
   20487 MEMB 54   POPS O11  OSLP          -0.57       15.9994       0
   20488 MEMB 54   POPS C1   CTL2          -0.08        12.011       0
   20489 MEMB 54   POPS HA   HAL2           0.09         1.008       0
   20490 MEMB 54   POPS HB   HAL2           0.09         1.008       0
   20491 MEMB 54   POPS C2   CTL1           0.17        12.011       0
   20492 MEMB 54   POPS HS   HAL1           0.09         1.008       0
   20493 MEMB 54   POPS O21  OSL           -0.49       15.9994       0
   20494 MEMB 54   POPS C21  CL              0.9        12.011       0
   20495 MEMB 54   POPS O22  OBL           -0.63       15.9994       0
   20496 MEMB 54   POPS C22  CTL2          -0.22        12.011       0
   20497 MEMB 54   POPS H2R  HAL2           0.09         1.008       0
   20498 MEMB 54   POPS H2S  HAL2           0.09         1.008       0
   20499 MEMB 54   POPS C3   CTL2           0.08        12.011       0
   20500 MEMB 54   POPS HX   HAL2           0.09         1.008       0
   20501 MEMB 54   POPS HY   HAL2           0.09         1.008       0
   20502 MEMB 54   POPS O31  OSL           -0.49       15.9994       0
   20503 MEMB 54   POPS C31  CL              0.9        12.011       0
   20504 MEMB 54   POPS O32  OBL           -0.63       15.9994       0
   20505 MEMB 54   POPS C32  CTL2          -0.22        12.011       0
   20506 MEMB 54   POPS H2X  HAL2           0.09         1.008       0
   20507 MEMB 54   POPS H2Y  HAL2           0.09         1.008       0
   20508 MEMB 54   POPS C23  CTL2          -0.18        12.011       0
   20509 MEMB 54   POPS H3R  HAL2           0.09         1.008       0
   20510 MEMB 54   POPS H3S  HAL2           0.09         1.008       0
   20511 MEMB 54   POPS C24  CTL2          -0.18        12.011       0
   20512 MEMB 54   POPS H4R  HAL2           0.09         1.008       0
   20513 MEMB 54   POPS H4S  HAL2           0.09         1.008       0
   20514 MEMB 54   POPS C25  CTL2          -0.18        12.011       0
   20515 MEMB 54   POPS H5R  HAL2           0.09         1.008       0
   20516 MEMB 54   POPS H5S  HAL2           0.09         1.008       0
   20517 MEMB 54   POPS C26  CTL2          -0.18        12.011       0
   20518 MEMB 54   POPS H6R  HAL2           0.09         1.008       0
   20519 MEMB 54   POPS H6S  HAL2           0.09         1.008       0
   20520 MEMB 54   POPS C27  CTL2          -0.18        12.011       0
   20521 MEMB 54   POPS H7R  HAL2           0.09         1.008       0
   20522 MEMB 54   POPS H7S  HAL2           0.09         1.008       0
   20523 MEMB 54   POPS C28  CTL2          -0.18        12.011       0
   20524 MEMB 54   POPS H8R  HAL2           0.09         1.008       0
   20525 MEMB 54   POPS H8S  HAL2           0.09         1.008       0
   20526 MEMB 54   POPS C29  CEL1          -0.15        12.011       0
   20527 MEMB 54   POPS H91  HEL1           0.15         1.008       0
   20528 MEMB 54   POPS C210 CEL1          -0.15        12.011       0
   20529 MEMB 54   POPS H101 HEL1           0.15         1.008       0
   20530 MEMB 54   POPS C211 CTL2          -0.18        12.011       0
   20531 MEMB 54   POPS H11R HAL2           0.09         1.008       0
   20532 MEMB 54   POPS H11S HAL2           0.09         1.008       0
   20533 MEMB 54   POPS C212 CTL2          -0.18        12.011       0
   20534 MEMB 54   POPS H12R HAL2           0.09         1.008       0
   20535 MEMB 54   POPS H12S HAL2           0.09         1.008       0
   20536 MEMB 54   POPS C213 CTL2          -0.18        12.011       0
   20537 MEMB 54   POPS H13R HAL2           0.09         1.008       0
   20538 MEMB 54   POPS H13S HAL2           0.09         1.008       0
   20539 MEMB 54   POPS C214 CTL2          -0.18        12.011       0
   20540 MEMB 54   POPS H14R HAL2           0.09         1.008       0
   20541 MEMB 54   POPS H14S HAL2           0.09         1.008       0
   20542 MEMB 54   POPS C215 CTL2          -0.18        12.011       0
   20543 MEMB 54   POPS H15R HAL2           0.09         1.008       0
   20544 MEMB 54   POPS H15S HAL2           0.09         1.008       0
   20545 MEMB 54   POPS C216 CTL2          -0.18        12.011       0
   20546 MEMB 54   POPS H16R HAL2           0.09         1.008       0
   20547 MEMB 54   POPS H16S HAL2           0.09         1.008       0
   20548 MEMB 54   POPS C217 CTL2          -0.18        12.011       0
   20549 MEMB 54   POPS H17R HAL2           0.09         1.008       0
   20550 MEMB 54   POPS H17S HAL2           0.09         1.008       0
   20551 MEMB 54   POPS C218 CTL3          -0.27        12.011       0
   20552 MEMB 54   POPS H18R HAL3           0.09         1.008       0
   20553 MEMB 54   POPS H18S HAL3           0.09         1.008       0
   20554 MEMB 54   POPS H18T HAL3           0.09         1.008       0
   20555 MEMB 54   POPS C33  CTL2          -0.18        12.011       0
   20556 MEMB 54   POPS H3X  HAL2           0.09         1.008       0
   20557 MEMB 54   POPS H3Y  HAL2           0.09         1.008       0
   20558 MEMB 54   POPS C34  CTL2          -0.18        12.011       0
   20559 MEMB 54   POPS H4X  HAL2           0.09         1.008       0
   20560 MEMB 54   POPS H4Y  HAL2           0.09         1.008       0
   20561 MEMB 54   POPS C35  CTL2          -0.18        12.011       0
   20562 MEMB 54   POPS H5X  HAL2           0.09         1.008       0
   20563 MEMB 54   POPS H5Y  HAL2           0.09         1.008       0
   20564 MEMB 54   POPS C36  CTL2          -0.18        12.011       0
   20565 MEMB 54   POPS H6X  HAL2           0.09         1.008       0
   20566 MEMB 54   POPS H6Y  HAL2           0.09         1.008       0
   20567 MEMB 54   POPS C37  CTL2          -0.18        12.011       0
   20568 MEMB 54   POPS H7X  HAL2           0.09         1.008       0
   20569 MEMB 54   POPS H7Y  HAL2           0.09         1.008       0
   20570 MEMB 54   POPS C38  CTL2          -0.18        12.011       0
   20571 MEMB 54   POPS H8X  HAL2           0.09         1.008       0
   20572 MEMB 54   POPS H8Y  HAL2           0.09         1.008       0
   20573 MEMB 54   POPS C39  CTL2          -0.18        12.011       0
   20574 MEMB 54   POPS H9X  HAL2           0.09         1.008       0
   20575 MEMB 54   POPS H9Y  HAL2           0.09         1.008       0
   20576 MEMB 54   POPS C310 CTL2          -0.18        12.011       0
   20577 MEMB 54   POPS H10X HAL2           0.09         1.008       0
   20578 MEMB 54   POPS H10Y HAL2           0.09         1.008       0
   20579 MEMB 54   POPS C311 CTL2          -0.18        12.011       0
   20580 MEMB 54   POPS H11X HAL2           0.09         1.008       0
   20581 MEMB 54   POPS H11Y HAL2           0.09         1.008       0
   20582 MEMB 54   POPS C312 CTL2          -0.18        12.011       0
   20583 MEMB 54   POPS H12X HAL2           0.09         1.008       0
   20584 MEMB 54   POPS H12Y HAL2           0.09         1.008       0
   20585 MEMB 54   POPS C313 CTL2          -0.18        12.011       0
   20586 MEMB 54   POPS H13X HAL2           0.09         1.008       0
   20587 MEMB 54   POPS H13Y HAL2           0.09         1.008       0
   20588 MEMB 54   POPS C314 CTL2          -0.18        12.011       0
   20589 MEMB 54   POPS H14X HAL2           0.09         1.008       0
   20590 MEMB 54   POPS H14Y HAL2           0.09         1.008       0
   20591 MEMB 54   POPS C315 CTL2          -0.18        12.011       0
   20592 MEMB 54   POPS H15X HAL2           0.09         1.008       0
   20593 MEMB 54   POPS H15Y HAL2           0.09         1.008       0
   20594 MEMB 54   POPS C316 CTL3          -0.27        12.011       0
   20595 MEMB 54   POPS H16X HAL3           0.09         1.008       0
   20596 MEMB 54   POPS H16Y HAL3           0.09         1.008       0
   20597 MEMB 54   POPS H16Z HAL3           0.09         1.008       0
   20598 MEMB 55   POPE N    NH3L           -0.3        14.007       0
   20599 MEMB 55   POPE HN1  HCL            0.33         1.008       0
   20600 MEMB 55   POPE HN2  HCL            0.33         1.008       0
   20601 MEMB 55   POPE HN3  HCL            0.33         1.008       0
   20602 MEMB 55   POPE C12  CTL2           0.13        12.011       0
   20603 MEMB 55   POPE H12A HAL2           0.09         1.008       0
   20604 MEMB 55   POPE H12B HAL2           0.09         1.008       0
   20605 MEMB 55   POPE C11  CTL2          -0.08        12.011       0
   20606 MEMB 55   POPE H11A HAL2           0.09         1.008       0
   20607 MEMB 55   POPE H11B HAL2           0.09         1.008       0
   20608 MEMB 55   POPE P    PL              1.5        30.974       0
   20609 MEMB 55   POPE O13  O2L           -0.78       15.9994       0
   20610 MEMB 55   POPE O14  O2L           -0.78       15.9994       0
   20611 MEMB 55   POPE O11  OSLP          -0.57       15.9994       0
   20612 MEMB 55   POPE O12  OSLP          -0.57       15.9994       0
   20613 MEMB 55   POPE C1   CTL2          -0.08        12.011       0
   20614 MEMB 55   POPE HA   HAL2           0.09         1.008       0
   20615 MEMB 55   POPE HB   HAL2           0.09         1.008       0
   20616 MEMB 55   POPE C2   CTL1           0.17        12.011       0
   20617 MEMB 55   POPE HS   HAL1           0.09         1.008       0
   20618 MEMB 55   POPE O21  OSL           -0.49       15.9994       0
   20619 MEMB 55   POPE C21  CL              0.9        12.011       0
   20620 MEMB 55   POPE O22  OBL           -0.63       15.9994       0
   20621 MEMB 55   POPE C22  CTL2          -0.22        12.011       0
   20622 MEMB 55   POPE H2R  HAL2           0.09         1.008       0
   20623 MEMB 55   POPE H2S  HAL2           0.09         1.008       0
   20624 MEMB 55   POPE C3   CTL2           0.08        12.011       0
   20625 MEMB 55   POPE HX   HAL2           0.09         1.008       0
   20626 MEMB 55   POPE HY   HAL2           0.09         1.008       0
   20627 MEMB 55   POPE O31  OSL           -0.49       15.9994       0
   20628 MEMB 55   POPE C31  CL              0.9        12.011       0
   20629 MEMB 55   POPE O32  OBL           -0.63       15.9994       0
   20630 MEMB 55   POPE C32  CTL2          -0.22        12.011       0
   20631 MEMB 55   POPE H2X  HAL2           0.09         1.008       0
   20632 MEMB 55   POPE H2Y  HAL2           0.09         1.008       0
   20633 MEMB 55   POPE C23  CTL2          -0.18        12.011       0
   20634 MEMB 55   POPE H3R  HAL2           0.09         1.008       0
   20635 MEMB 55   POPE H3S  HAL2           0.09         1.008       0
   20636 MEMB 55   POPE C24  CTL2          -0.18        12.011       0
   20637 MEMB 55   POPE H4R  HAL2           0.09         1.008       0
   20638 MEMB 55   POPE H4S  HAL2           0.09         1.008       0
   20639 MEMB 55   POPE C25  CTL2          -0.18        12.011       0
   20640 MEMB 55   POPE H5R  HAL2           0.09         1.008       0
   20641 MEMB 55   POPE H5S  HAL2           0.09         1.008       0
   20642 MEMB 55   POPE C26  CTL2          -0.18        12.011       0
   20643 MEMB 55   POPE H6R  HAL2           0.09         1.008       0
   20644 MEMB 55   POPE H6S  HAL2           0.09         1.008       0
   20645 MEMB 55   POPE C27  CTL2          -0.18        12.011       0
   20646 MEMB 55   POPE H7R  HAL2           0.09         1.008       0
   20647 MEMB 55   POPE H7S  HAL2           0.09         1.008       0
   20648 MEMB 55   POPE C28  CTL2          -0.18        12.011       0
   20649 MEMB 55   POPE H8R  HAL2           0.09         1.008       0
   20650 MEMB 55   POPE H8S  HAL2           0.09         1.008       0
   20651 MEMB 55   POPE C29  CEL1          -0.15        12.011       0
   20652 MEMB 55   POPE H91  HEL1           0.15         1.008       0
   20653 MEMB 55   POPE C210 CEL1          -0.15        12.011       0
   20654 MEMB 55   POPE H101 HEL1           0.15         1.008       0
   20655 MEMB 55   POPE C211 CTL2          -0.18        12.011       0
   20656 MEMB 55   POPE H11R HAL2           0.09         1.008       0
   20657 MEMB 55   POPE H11S HAL2           0.09         1.008       0
   20658 MEMB 55   POPE C212 CTL2          -0.18        12.011       0
   20659 MEMB 55   POPE H12R HAL2           0.09         1.008       0
   20660 MEMB 55   POPE H12S HAL2           0.09         1.008       0
   20661 MEMB 55   POPE C213 CTL2          -0.18        12.011       0
   20662 MEMB 55   POPE H13R HAL2           0.09         1.008       0
   20663 MEMB 55   POPE H13S HAL2           0.09         1.008       0
   20664 MEMB 55   POPE C214 CTL2          -0.18        12.011       0
   20665 MEMB 55   POPE H14R HAL2           0.09         1.008       0
   20666 MEMB 55   POPE H14S HAL2           0.09         1.008       0
   20667 MEMB 55   POPE C215 CTL2          -0.18        12.011       0
   20668 MEMB 55   POPE H15R HAL2           0.09         1.008       0
   20669 MEMB 55   POPE H15S HAL2           0.09         1.008       0
   20670 MEMB 55   POPE C216 CTL2          -0.18        12.011       0
   20671 MEMB 55   POPE H16R HAL2           0.09         1.008       0
   20672 MEMB 55   POPE H16S HAL2           0.09         1.008       0
   20673 MEMB 55   POPE C217 CTL2          -0.18        12.011       0
   20674 MEMB 55   POPE H17R HAL2           0.09         1.008       0
   20675 MEMB 55   POPE H17S HAL2           0.09         1.008       0
   20676 MEMB 55   POPE C218 CTL3          -0.27        12.011       0
   20677 MEMB 55   POPE H18R HAL3           0.09         1.008       0
   20678 MEMB 55   POPE H18S HAL3           0.09         1.008       0
   20679 MEMB 55   POPE H18T HAL3           0.09         1.008       0
   20680 MEMB 55   POPE C33  CTL2          -0.18        12.011       0
   20681 MEMB 55   POPE H3X  HAL2           0.09         1.008       0
   20682 MEMB 55   POPE H3Y  HAL2           0.09         1.008       0
   20683 MEMB 55   POPE C34  CTL2          -0.18        12.011       0
   20684 MEMB 55   POPE H4X  HAL2           0.09         1.008       0
   20685 MEMB 55   POPE H4Y  HAL2           0.09         1.008       0
   20686 MEMB 55   POPE C35  CTL2          -0.18        12.011       0
   20687 MEMB 55   POPE H5X  HAL2           0.09         1.008       0
   20688 MEMB 55   POPE H5Y  HAL2           0.09         1.008       0
   20689 MEMB 55   POPE C36  CTL2          -0.18        12.011       0
   20690 MEMB 55   POPE H6X  HAL2           0.09         1.008       0
   20691 MEMB 55   POPE H6Y  HAL2           0.09         1.008       0
   20692 MEMB 55   POPE C37  CTL2          -0.18        12.011       0
   20693 MEMB 55   POPE H7X  HAL2           0.09         1.008       0
   20694 MEMB 55   POPE H7Y  HAL2           0.09         1.008       0
   20695 MEMB 55   POPE C38  CTL2          -0.18        12.011       0
   20696 MEMB 55   POPE H8X  HAL2           0.09         1.008       0
   20697 MEMB 55   POPE H8Y  HAL2           0.09         1.008       0
   20698 MEMB 55   POPE C39  CTL2          -0.18        12.011       0
   20699 MEMB 55   POPE H9X  HAL2           0.09         1.008       0
   20700 MEMB 55   POPE H9Y  HAL2           0.09         1.008       0
   20701 MEMB 55   POPE C310 CTL2          -0.18        12.011       0
   20702 MEMB 55   POPE H10X HAL2           0.09         1.008       0
   20703 MEMB 55   POPE H10Y HAL2           0.09         1.008       0
   20704 MEMB 55   POPE C311 CTL2          -0.18        12.011       0
   20705 MEMB 55   POPE H11X HAL2           0.09         1.008       0
   20706 MEMB 55   POPE H11Y HAL2           0.09         1.008       0
   20707 MEMB 55   POPE C312 CTL2          -0.18        12.011       0
   20708 MEMB 55   POPE H12X HAL2           0.09         1.008       0
   20709 MEMB 55   POPE H12Y HAL2           0.09         1.008       0
   20710 MEMB 55   POPE C313 CTL2          -0.18        12.011       0
   20711 MEMB 55   POPE H13X HAL2           0.09         1.008       0
   20712 MEMB 55   POPE H13Y HAL2           0.09         1.008       0
   20713 MEMB 55   POPE C314 CTL2          -0.18        12.011       0
   20714 MEMB 55   POPE H14X HAL2           0.09         1.008       0
   20715 MEMB 55   POPE H14Y HAL2           0.09         1.008       0
   20716 MEMB 55   POPE C315 CTL2          -0.18        12.011       0
   20717 MEMB 55   POPE H15X HAL2           0.09         1.008       0
   20718 MEMB 55   POPE H15Y HAL2           0.09         1.008       0
   20719 MEMB 55   POPE C316 CTL3          -0.27        12.011       0
   20720 MEMB 55   POPE H16X HAL3           0.09         1.008       0
   20721 MEMB 55   POPE H16Y HAL3           0.09         1.008       0
   20722 MEMB 55   POPE H16Z HAL3           0.09         1.008       0
   20723 MEMB 56   POPC N    NTL            -0.6        14.007       0
   20724 MEMB 56   POPC C12  CTL2           -0.1        12.011       0
   20725 MEMB 56   POPC H12A HL             0.25         1.008       0
   20726 MEMB 56   POPC H12B HL             0.25         1.008       0
   20727 MEMB 56   POPC C13  CTL5          -0.35        12.011       0
   20728 MEMB 56   POPC H13A HL             0.25         1.008       0
   20729 MEMB 56   POPC H13B HL             0.25         1.008       0
   20730 MEMB 56   POPC H13C HL             0.25         1.008       0
   20731 MEMB 56   POPC C14  CTL5          -0.35        12.011       0
   20732 MEMB 56   POPC H14A HL             0.25         1.008       0
   20733 MEMB 56   POPC H14B HL             0.25         1.008       0
   20734 MEMB 56   POPC H14C HL             0.25         1.008       0
   20735 MEMB 56   POPC C15  CTL5          -0.35        12.011       0
   20736 MEMB 56   POPC H15A HL             0.25         1.008       0
   20737 MEMB 56   POPC H15B HL             0.25         1.008       0
   20738 MEMB 56   POPC H15C HL             0.25         1.008       0
   20739 MEMB 56   POPC C11  CTL2          -0.08        12.011       0
   20740 MEMB 56   POPC H11A HAL2           0.09         1.008       0
   20741 MEMB 56   POPC H11B HAL2           0.09         1.008       0
   20742 MEMB 56   POPC P    PL              1.5        30.974       0
   20743 MEMB 56   POPC O13  O2L           -0.78       15.9994       0
   20744 MEMB 56   POPC O14  O2L           -0.78       15.9994       0
   20745 MEMB 56   POPC O12  OSLP          -0.57       15.9994       0
   20746 MEMB 56   POPC O11  OSLP          -0.57       15.9994       0
   20747 MEMB 56   POPC C1   CTL2          -0.08        12.011       0
   20748 MEMB 56   POPC HA   HAL2           0.09         1.008       0
   20749 MEMB 56   POPC HB   HAL2           0.09         1.008       0
   20750 MEMB 56   POPC C2   CTL1           0.17        12.011       0
   20751 MEMB 56   POPC HS   HAL1           0.09         1.008       0
   20752 MEMB 56   POPC O21  OSL           -0.49       15.9994       0
   20753 MEMB 56   POPC C21  CL              0.9        12.011       0
   20754 MEMB 56   POPC O22  OBL           -0.63       15.9994       0
   20755 MEMB 56   POPC C22  CTL2          -0.22        12.011       0
   20756 MEMB 56   POPC H2R  HAL2           0.09         1.008       0
   20757 MEMB 56   POPC H2S  HAL2           0.09         1.008       0
   20758 MEMB 56   POPC C3   CTL2           0.08        12.011       0
   20759 MEMB 56   POPC HX   HAL2           0.09         1.008       0
   20760 MEMB 56   POPC HY   HAL2           0.09         1.008       0
   20761 MEMB 56   POPC O31  OSL           -0.49       15.9994       0
   20762 MEMB 56   POPC C31  CL              0.9        12.011       0
   20763 MEMB 56   POPC O32  OBL           -0.63       15.9994       0
   20764 MEMB 56   POPC C32  CTL2          -0.22        12.011       0
   20765 MEMB 56   POPC H2X  HAL2           0.09         1.008       0
   20766 MEMB 56   POPC H2Y  HAL2           0.09         1.008       0
   20767 MEMB 56   POPC C23  CTL2          -0.18        12.011       0
   20768 MEMB 56   POPC H3R  HAL2           0.09         1.008       0
   20769 MEMB 56   POPC H3S  HAL2           0.09         1.008       0
   20770 MEMB 56   POPC C24  CTL2          -0.18        12.011       0
   20771 MEMB 56   POPC H4R  HAL2           0.09         1.008       0
   20772 MEMB 56   POPC H4S  HAL2           0.09         1.008       0
   20773 MEMB 56   POPC C25  CTL2          -0.18        12.011       0
   20774 MEMB 56   POPC H5R  HAL2           0.09         1.008       0
   20775 MEMB 56   POPC H5S  HAL2           0.09         1.008       0
   20776 MEMB 56   POPC C26  CTL2          -0.18        12.011       0
   20777 MEMB 56   POPC H6R  HAL2           0.09         1.008       0
   20778 MEMB 56   POPC H6S  HAL2           0.09         1.008       0
   20779 MEMB 56   POPC C27  CTL2          -0.18        12.011       0
   20780 MEMB 56   POPC H7R  HAL2           0.09         1.008       0
   20781 MEMB 56   POPC H7S  HAL2           0.09         1.008       0
   20782 MEMB 56   POPC C28  CTL2          -0.18        12.011       0
   20783 MEMB 56   POPC H8R  HAL2           0.09         1.008       0
   20784 MEMB 56   POPC H8S  HAL2           0.09         1.008       0
   20785 MEMB 56   POPC C29  CEL1          -0.15        12.011       0
   20786 MEMB 56   POPC H91  HEL1           0.15         1.008       0
   20787 MEMB 56   POPC C210 CEL1          -0.15        12.011       0
   20788 MEMB 56   POPC H101 HEL1           0.15         1.008       0
   20789 MEMB 56   POPC C211 CTL2          -0.18        12.011       0
   20790 MEMB 56   POPC H11R HAL2           0.09         1.008       0
   20791 MEMB 56   POPC H11S HAL2           0.09         1.008       0
   20792 MEMB 56   POPC C212 CTL2          -0.18        12.011       0
   20793 MEMB 56   POPC H12R HAL2           0.09         1.008       0
   20794 MEMB 56   POPC H12S HAL2           0.09         1.008       0
   20795 MEMB 56   POPC C213 CTL2          -0.18        12.011       0
   20796 MEMB 56   POPC H13R HAL2           0.09         1.008       0
   20797 MEMB 56   POPC H13S HAL2           0.09         1.008       0
   20798 MEMB 56   POPC C214 CTL2          -0.18        12.011       0
   20799 MEMB 56   POPC H14R HAL2           0.09         1.008       0
   20800 MEMB 56   POPC H14S HAL2           0.09         1.008       0
   20801 MEMB 56   POPC C215 CTL2          -0.18        12.011       0
   20802 MEMB 56   POPC H15R HAL2           0.09         1.008       0
   20803 MEMB 56   POPC H15S HAL2           0.09         1.008       0
   20804 MEMB 56   POPC C216 CTL2          -0.18        12.011       0
   20805 MEMB 56   POPC H16R HAL2           0.09         1.008       0
   20806 MEMB 56   POPC H16S HAL2           0.09         1.008       0
   20807 MEMB 56   POPC C217 CTL2          -0.18        12.011       0
   20808 MEMB 56   POPC H17R HAL2           0.09         1.008       0
   20809 MEMB 56   POPC H17S HAL2           0.09         1.008       0
   20810 MEMB 56   POPC C218 CTL3          -0.27        12.011       0
   20811 MEMB 56   POPC H18R HAL3           0.09         1.008       0
   20812 MEMB 56   POPC H18S HAL3           0.09         1.008       0
   20813 MEMB 56   POPC H18T HAL3           0.09         1.008       0
   20814 MEMB 56   POPC C33  CTL2          -0.18        12.011       0
   20815 MEMB 56   POPC H3X  HAL2           0.09         1.008       0
   20816 MEMB 56   POPC H3Y  HAL2           0.09         1.008       0
   20817 MEMB 56   POPC C34  CTL2          -0.18        12.011       0
   20818 MEMB 56   POPC H4X  HAL2           0.09         1.008       0
   20819 MEMB 56   POPC H4Y  HAL2           0.09         1.008       0
   20820 MEMB 56   POPC C35  CTL2          -0.18        12.011       0
   20821 MEMB 56   POPC H5X  HAL2           0.09         1.008       0
   20822 MEMB 56   POPC H5Y  HAL2           0.09         1.008       0
   20823 MEMB 56   POPC C36  CTL2          -0.18        12.011       0
   20824 MEMB 56   POPC H6X  HAL2           0.09         1.008       0
   20825 MEMB 56   POPC H6Y  HAL2           0.09         1.008       0
   20826 MEMB 56   POPC C37  CTL2          -0.18        12.011       0
   20827 MEMB 56   POPC H7X  HAL2           0.09         1.008       0
   20828 MEMB 56   POPC H7Y  HAL2           0.09         1.008       0
   20829 MEMB 56   POPC C38  CTL2          -0.18        12.011       0
   20830 MEMB 56   POPC H8X  HAL2           0.09         1.008       0
   20831 MEMB 56   POPC H8Y  HAL2           0.09         1.008       0
   20832 MEMB 56   POPC C39  CTL2          -0.18        12.011       0
   20833 MEMB 56   POPC H9X  HAL2           0.09         1.008       0
   20834 MEMB 56   POPC H9Y  HAL2           0.09         1.008       0
   20835 MEMB 56   POPC C310 CTL2          -0.18        12.011       0
   20836 MEMB 56   POPC H10X HAL2           0.09         1.008       0
   20837 MEMB 56   POPC H10Y HAL2           0.09         1.008       0
   20838 MEMB 56   POPC C311 CTL2          -0.18        12.011       0
   20839 MEMB 56   POPC H11X HAL2           0.09         1.008       0
   20840 MEMB 56   POPC H11Y HAL2           0.09         1.008       0
   20841 MEMB 56   POPC C312 CTL2          -0.18        12.011       0
   20842 MEMB 56   POPC H12X HAL2           0.09         1.008       0
   20843 MEMB 56   POPC H12Y HAL2           0.09         1.008       0
   20844 MEMB 56   POPC C313 CTL2          -0.18        12.011       0
   20845 MEMB 56   POPC H13X HAL2           0.09         1.008       0
   20846 MEMB 56   POPC H13Y HAL2           0.09         1.008       0
   20847 MEMB 56   POPC C314 CTL2          -0.18        12.011       0
   20848 MEMB 56   POPC H14X HAL2           0.09         1.008       0
   20849 MEMB 56   POPC H14Y HAL2           0.09         1.008       0
   20850 MEMB 56   POPC C315 CTL2          -0.18        12.011       0
   20851 MEMB 56   POPC H15X HAL2           0.09         1.008       0
   20852 MEMB 56   POPC H15Y HAL2           0.09         1.008       0
   20853 MEMB 56   POPC C316 CTL3          -0.27        12.011       0
   20854 MEMB 56   POPC H16X HAL3           0.09         1.008       0
   20855 MEMB 56   POPC H16Y HAL3           0.09         1.008       0
   20856 MEMB 56   POPC H16Z HAL3           0.09         1.008       0
   20857 MEMB 57   POPE N    NH3L           -0.3        14.007       0
   20858 MEMB 57   POPE HN1  HCL            0.33         1.008       0
   20859 MEMB 57   POPE HN2  HCL            0.33         1.008       0
   20860 MEMB 57   POPE HN3  HCL            0.33         1.008       0
   20861 MEMB 57   POPE C12  CTL2           0.13        12.011       0
   20862 MEMB 57   POPE H12A HAL2           0.09         1.008       0
   20863 MEMB 57   POPE H12B HAL2           0.09         1.008       0
   20864 MEMB 57   POPE C11  CTL2          -0.08        12.011       0
   20865 MEMB 57   POPE H11A HAL2           0.09         1.008       0
   20866 MEMB 57   POPE H11B HAL2           0.09         1.008       0
   20867 MEMB 57   POPE P    PL              1.5        30.974       0
   20868 MEMB 57   POPE O13  O2L           -0.78       15.9994       0
   20869 MEMB 57   POPE O14  O2L           -0.78       15.9994       0
   20870 MEMB 57   POPE O11  OSLP          -0.57       15.9994       0
   20871 MEMB 57   POPE O12  OSLP          -0.57       15.9994       0
   20872 MEMB 57   POPE C1   CTL2          -0.08        12.011       0
   20873 MEMB 57   POPE HA   HAL2           0.09         1.008       0
   20874 MEMB 57   POPE HB   HAL2           0.09         1.008       0
   20875 MEMB 57   POPE C2   CTL1           0.17        12.011       0
   20876 MEMB 57   POPE HS   HAL1           0.09         1.008       0
   20877 MEMB 57   POPE O21  OSL           -0.49       15.9994       0
   20878 MEMB 57   POPE C21  CL              0.9        12.011       0
   20879 MEMB 57   POPE O22  OBL           -0.63       15.9994       0
   20880 MEMB 57   POPE C22  CTL2          -0.22        12.011       0
   20881 MEMB 57   POPE H2R  HAL2           0.09         1.008       0
   20882 MEMB 57   POPE H2S  HAL2           0.09         1.008       0
   20883 MEMB 57   POPE C3   CTL2           0.08        12.011       0
   20884 MEMB 57   POPE HX   HAL2           0.09         1.008       0
   20885 MEMB 57   POPE HY   HAL2           0.09         1.008       0
   20886 MEMB 57   POPE O31  OSL           -0.49       15.9994       0
   20887 MEMB 57   POPE C31  CL              0.9        12.011       0
   20888 MEMB 57   POPE O32  OBL           -0.63       15.9994       0
   20889 MEMB 57   POPE C32  CTL2          -0.22        12.011       0
   20890 MEMB 57   POPE H2X  HAL2           0.09         1.008       0
   20891 MEMB 57   POPE H2Y  HAL2           0.09         1.008       0
   20892 MEMB 57   POPE C23  CTL2          -0.18        12.011       0
   20893 MEMB 57   POPE H3R  HAL2           0.09         1.008       0
   20894 MEMB 57   POPE H3S  HAL2           0.09         1.008       0
   20895 MEMB 57   POPE C24  CTL2          -0.18        12.011       0
   20896 MEMB 57   POPE H4R  HAL2           0.09         1.008       0
   20897 MEMB 57   POPE H4S  HAL2           0.09         1.008       0
   20898 MEMB 57   POPE C25  CTL2          -0.18        12.011       0
   20899 MEMB 57   POPE H5R  HAL2           0.09         1.008       0
   20900 MEMB 57   POPE H5S  HAL2           0.09         1.008       0
   20901 MEMB 57   POPE C26  CTL2          -0.18        12.011       0
   20902 MEMB 57   POPE H6R  HAL2           0.09         1.008       0
   20903 MEMB 57   POPE H6S  HAL2           0.09         1.008       0
   20904 MEMB 57   POPE C27  CTL2          -0.18        12.011       0
   20905 MEMB 57   POPE H7R  HAL2           0.09         1.008       0
   20906 MEMB 57   POPE H7S  HAL2           0.09         1.008       0
   20907 MEMB 57   POPE C28  CTL2          -0.18        12.011       0
   20908 MEMB 57   POPE H8R  HAL2           0.09         1.008       0
   20909 MEMB 57   POPE H8S  HAL2           0.09         1.008       0
   20910 MEMB 57   POPE C29  CEL1          -0.15        12.011       0
   20911 MEMB 57   POPE H91  HEL1           0.15         1.008       0
   20912 MEMB 57   POPE C210 CEL1          -0.15        12.011       0
   20913 MEMB 57   POPE H101 HEL1           0.15         1.008       0
   20914 MEMB 57   POPE C211 CTL2          -0.18        12.011       0
   20915 MEMB 57   POPE H11R HAL2           0.09         1.008       0
   20916 MEMB 57   POPE H11S HAL2           0.09         1.008       0
   20917 MEMB 57   POPE C212 CTL2          -0.18        12.011       0
   20918 MEMB 57   POPE H12R HAL2           0.09         1.008       0
   20919 MEMB 57   POPE H12S HAL2           0.09         1.008       0
   20920 MEMB 57   POPE C213 CTL2          -0.18        12.011       0
   20921 MEMB 57   POPE H13R HAL2           0.09         1.008       0
   20922 MEMB 57   POPE H13S HAL2           0.09         1.008       0
   20923 MEMB 57   POPE C214 CTL2          -0.18        12.011       0
   20924 MEMB 57   POPE H14R HAL2           0.09         1.008       0
   20925 MEMB 57   POPE H14S HAL2           0.09         1.008       0
   20926 MEMB 57   POPE C215 CTL2          -0.18        12.011       0
   20927 MEMB 57   POPE H15R HAL2           0.09         1.008       0
   20928 MEMB 57   POPE H15S HAL2           0.09         1.008       0
   20929 MEMB 57   POPE C216 CTL2          -0.18        12.011       0
   20930 MEMB 57   POPE H16R HAL2           0.09         1.008       0
   20931 MEMB 57   POPE H16S HAL2           0.09         1.008       0
   20932 MEMB 57   POPE C217 CTL2          -0.18        12.011       0
   20933 MEMB 57   POPE H17R HAL2           0.09         1.008       0
   20934 MEMB 57   POPE H17S HAL2           0.09         1.008       0
   20935 MEMB 57   POPE C218 CTL3          -0.27        12.011       0
   20936 MEMB 57   POPE H18R HAL3           0.09         1.008       0
   20937 MEMB 57   POPE H18S HAL3           0.09         1.008       0
   20938 MEMB 57   POPE H18T HAL3           0.09         1.008       0
   20939 MEMB 57   POPE C33  CTL2          -0.18        12.011       0
   20940 MEMB 57   POPE H3X  HAL2           0.09         1.008       0
   20941 MEMB 57   POPE H3Y  HAL2           0.09         1.008       0
   20942 MEMB 57   POPE C34  CTL2          -0.18        12.011       0
   20943 MEMB 57   POPE H4X  HAL2           0.09         1.008       0
   20944 MEMB 57   POPE H4Y  HAL2           0.09         1.008       0
   20945 MEMB 57   POPE C35  CTL2          -0.18        12.011       0
   20946 MEMB 57   POPE H5X  HAL2           0.09         1.008       0
   20947 MEMB 57   POPE H5Y  HAL2           0.09         1.008       0
   20948 MEMB 57   POPE C36  CTL2          -0.18        12.011       0
   20949 MEMB 57   POPE H6X  HAL2           0.09         1.008       0
   20950 MEMB 57   POPE H6Y  HAL2           0.09         1.008       0
   20951 MEMB 57   POPE C37  CTL2          -0.18        12.011       0
   20952 MEMB 57   POPE H7X  HAL2           0.09         1.008       0
   20953 MEMB 57   POPE H7Y  HAL2           0.09         1.008       0
   20954 MEMB 57   POPE C38  CTL2          -0.18        12.011       0
   20955 MEMB 57   POPE H8X  HAL2           0.09         1.008       0
   20956 MEMB 57   POPE H8Y  HAL2           0.09         1.008       0
   20957 MEMB 57   POPE C39  CTL2          -0.18        12.011       0
   20958 MEMB 57   POPE H9X  HAL2           0.09         1.008       0
   20959 MEMB 57   POPE H9Y  HAL2           0.09         1.008       0
   20960 MEMB 57   POPE C310 CTL2          -0.18        12.011       0
   20961 MEMB 57   POPE H10X HAL2           0.09         1.008       0
   20962 MEMB 57   POPE H10Y HAL2           0.09         1.008       0
   20963 MEMB 57   POPE C311 CTL2          -0.18        12.011       0
   20964 MEMB 57   POPE H11X HAL2           0.09         1.008       0
   20965 MEMB 57   POPE H11Y HAL2           0.09         1.008       0
   20966 MEMB 57   POPE C312 CTL2          -0.18        12.011       0
   20967 MEMB 57   POPE H12X HAL2           0.09         1.008       0
   20968 MEMB 57   POPE H12Y HAL2           0.09         1.008       0
   20969 MEMB 57   POPE C313 CTL2          -0.18        12.011       0
   20970 MEMB 57   POPE H13X HAL2           0.09         1.008       0
   20971 MEMB 57   POPE H13Y HAL2           0.09         1.008       0
   20972 MEMB 57   POPE C314 CTL2          -0.18        12.011       0
   20973 MEMB 57   POPE H14X HAL2           0.09         1.008       0
   20974 MEMB 57   POPE H14Y HAL2           0.09         1.008       0
   20975 MEMB 57   POPE C315 CTL2          -0.18        12.011       0
   20976 MEMB 57   POPE H15X HAL2           0.09         1.008       0
   20977 MEMB 57   POPE H15Y HAL2           0.09         1.008       0
   20978 MEMB 57   POPE C316 CTL3          -0.27        12.011       0
   20979 MEMB 57   POPE H16X HAL3           0.09         1.008       0
   20980 MEMB 57   POPE H16Y HAL3           0.09         1.008       0
   20981 MEMB 57   POPE H16Z HAL3           0.09         1.008       0
   20982 MEMB 58   POPC N    NTL            -0.6        14.007       0
   20983 MEMB 58   POPC C12  CTL2           -0.1        12.011       0
   20984 MEMB 58   POPC H12A HL             0.25         1.008       0
   20985 MEMB 58   POPC H12B HL             0.25         1.008       0
   20986 MEMB 58   POPC C13  CTL5          -0.35        12.011       0
   20987 MEMB 58   POPC H13A HL             0.25         1.008       0
   20988 MEMB 58   POPC H13B HL             0.25         1.008       0
   20989 MEMB 58   POPC H13C HL             0.25         1.008       0
   20990 MEMB 58   POPC C14  CTL5          -0.35        12.011       0
   20991 MEMB 58   POPC H14A HL             0.25         1.008       0
   20992 MEMB 58   POPC H14B HL             0.25         1.008       0
   20993 MEMB 58   POPC H14C HL             0.25         1.008       0
   20994 MEMB 58   POPC C15  CTL5          -0.35        12.011       0
   20995 MEMB 58   POPC H15A HL             0.25         1.008       0
   20996 MEMB 58   POPC H15B HL             0.25         1.008       0
   20997 MEMB 58   POPC H15C HL             0.25         1.008       0
   20998 MEMB 58   POPC C11  CTL2          -0.08        12.011       0
   20999 MEMB 58   POPC H11A HAL2           0.09         1.008       0
   21000 MEMB 58   POPC H11B HAL2           0.09         1.008       0
   21001 MEMB 58   POPC P    PL              1.5        30.974       0
   21002 MEMB 58   POPC O13  O2L           -0.78       15.9994       0
   21003 MEMB 58   POPC O14  O2L           -0.78       15.9994       0
   21004 MEMB 58   POPC O12  OSLP          -0.57       15.9994       0
   21005 MEMB 58   POPC O11  OSLP          -0.57       15.9994       0
   21006 MEMB 58   POPC C1   CTL2          -0.08        12.011       0
   21007 MEMB 58   POPC HA   HAL2           0.09         1.008       0
   21008 MEMB 58   POPC HB   HAL2           0.09         1.008       0
   21009 MEMB 58   POPC C2   CTL1           0.17        12.011       0
   21010 MEMB 58   POPC HS   HAL1           0.09         1.008       0
   21011 MEMB 58   POPC O21  OSL           -0.49       15.9994       0
   21012 MEMB 58   POPC C21  CL              0.9        12.011       0
   21013 MEMB 58   POPC O22  OBL           -0.63       15.9994       0
   21014 MEMB 58   POPC C22  CTL2          -0.22        12.011       0
   21015 MEMB 58   POPC H2R  HAL2           0.09         1.008       0
   21016 MEMB 58   POPC H2S  HAL2           0.09         1.008       0
   21017 MEMB 58   POPC C3   CTL2           0.08        12.011       0
   21018 MEMB 58   POPC HX   HAL2           0.09         1.008       0
   21019 MEMB 58   POPC HY   HAL2           0.09         1.008       0
   21020 MEMB 58   POPC O31  OSL           -0.49       15.9994       0
   21021 MEMB 58   POPC C31  CL              0.9        12.011       0
   21022 MEMB 58   POPC O32  OBL           -0.63       15.9994       0
   21023 MEMB 58   POPC C32  CTL2          -0.22        12.011       0
   21024 MEMB 58   POPC H2X  HAL2           0.09         1.008       0
   21025 MEMB 58   POPC H2Y  HAL2           0.09         1.008       0
   21026 MEMB 58   POPC C23  CTL2          -0.18        12.011       0
   21027 MEMB 58   POPC H3R  HAL2           0.09         1.008       0
   21028 MEMB 58   POPC H3S  HAL2           0.09         1.008       0
   21029 MEMB 58   POPC C24  CTL2          -0.18        12.011       0
   21030 MEMB 58   POPC H4R  HAL2           0.09         1.008       0
   21031 MEMB 58   POPC H4S  HAL2           0.09         1.008       0
   21032 MEMB 58   POPC C25  CTL2          -0.18        12.011       0
   21033 MEMB 58   POPC H5R  HAL2           0.09         1.008       0
   21034 MEMB 58   POPC H5S  HAL2           0.09         1.008       0
   21035 MEMB 58   POPC C26  CTL2          -0.18        12.011       0
   21036 MEMB 58   POPC H6R  HAL2           0.09         1.008       0
   21037 MEMB 58   POPC H6S  HAL2           0.09         1.008       0
   21038 MEMB 58   POPC C27  CTL2          -0.18        12.011       0
   21039 MEMB 58   POPC H7R  HAL2           0.09         1.008       0
   21040 MEMB 58   POPC H7S  HAL2           0.09         1.008       0
   21041 MEMB 58   POPC C28  CTL2          -0.18        12.011       0
   21042 MEMB 58   POPC H8R  HAL2           0.09         1.008       0
   21043 MEMB 58   POPC H8S  HAL2           0.09         1.008       0
   21044 MEMB 58   POPC C29  CEL1          -0.15        12.011       0
   21045 MEMB 58   POPC H91  HEL1           0.15         1.008       0
   21046 MEMB 58   POPC C210 CEL1          -0.15        12.011       0
   21047 MEMB 58   POPC H101 HEL1           0.15         1.008       0
   21048 MEMB 58   POPC C211 CTL2          -0.18        12.011       0
   21049 MEMB 58   POPC H11R HAL2           0.09         1.008       0
   21050 MEMB 58   POPC H11S HAL2           0.09         1.008       0
   21051 MEMB 58   POPC C212 CTL2          -0.18        12.011       0
   21052 MEMB 58   POPC H12R HAL2           0.09         1.008       0
   21053 MEMB 58   POPC H12S HAL2           0.09         1.008       0
   21054 MEMB 58   POPC C213 CTL2          -0.18        12.011       0
   21055 MEMB 58   POPC H13R HAL2           0.09         1.008       0
   21056 MEMB 58   POPC H13S HAL2           0.09         1.008       0
   21057 MEMB 58   POPC C214 CTL2          -0.18        12.011       0
   21058 MEMB 58   POPC H14R HAL2           0.09         1.008       0
   21059 MEMB 58   POPC H14S HAL2           0.09         1.008       0
   21060 MEMB 58   POPC C215 CTL2          -0.18        12.011       0
   21061 MEMB 58   POPC H15R HAL2           0.09         1.008       0
   21062 MEMB 58   POPC H15S HAL2           0.09         1.008       0
   21063 MEMB 58   POPC C216 CTL2          -0.18        12.011       0
   21064 MEMB 58   POPC H16R HAL2           0.09         1.008       0
   21065 MEMB 58   POPC H16S HAL2           0.09         1.008       0
   21066 MEMB 58   POPC C217 CTL2          -0.18        12.011       0
   21067 MEMB 58   POPC H17R HAL2           0.09         1.008       0
   21068 MEMB 58   POPC H17S HAL2           0.09         1.008       0
   21069 MEMB 58   POPC C218 CTL3          -0.27        12.011       0
   21070 MEMB 58   POPC H18R HAL3           0.09         1.008       0
   21071 MEMB 58   POPC H18S HAL3           0.09         1.008       0
   21072 MEMB 58   POPC H18T HAL3           0.09         1.008       0
   21073 MEMB 58   POPC C33  CTL2          -0.18        12.011       0
   21074 MEMB 58   POPC H3X  HAL2           0.09         1.008       0
   21075 MEMB 58   POPC H3Y  HAL2           0.09         1.008       0
   21076 MEMB 58   POPC C34  CTL2          -0.18        12.011       0
   21077 MEMB 58   POPC H4X  HAL2           0.09         1.008       0
   21078 MEMB 58   POPC H4Y  HAL2           0.09         1.008       0
   21079 MEMB 58   POPC C35  CTL2          -0.18        12.011       0
   21080 MEMB 58   POPC H5X  HAL2           0.09         1.008       0
   21081 MEMB 58   POPC H5Y  HAL2           0.09         1.008       0
   21082 MEMB 58   POPC C36  CTL2          -0.18        12.011       0
   21083 MEMB 58   POPC H6X  HAL2           0.09         1.008       0
   21084 MEMB 58   POPC H6Y  HAL2           0.09         1.008       0
   21085 MEMB 58   POPC C37  CTL2          -0.18        12.011       0
   21086 MEMB 58   POPC H7X  HAL2           0.09         1.008       0
   21087 MEMB 58   POPC H7Y  HAL2           0.09         1.008       0
   21088 MEMB 58   POPC C38  CTL2          -0.18        12.011       0
   21089 MEMB 58   POPC H8X  HAL2           0.09         1.008       0
   21090 MEMB 58   POPC H8Y  HAL2           0.09         1.008       0
   21091 MEMB 58   POPC C39  CTL2          -0.18        12.011       0
   21092 MEMB 58   POPC H9X  HAL2           0.09         1.008       0
   21093 MEMB 58   POPC H9Y  HAL2           0.09         1.008       0
   21094 MEMB 58   POPC C310 CTL2          -0.18        12.011       0
   21095 MEMB 58   POPC H10X HAL2           0.09         1.008       0
   21096 MEMB 58   POPC H10Y HAL2           0.09         1.008       0
   21097 MEMB 58   POPC C311 CTL2          -0.18        12.011       0
   21098 MEMB 58   POPC H11X HAL2           0.09         1.008       0
   21099 MEMB 58   POPC H11Y HAL2           0.09         1.008       0
   21100 MEMB 58   POPC C312 CTL2          -0.18        12.011       0
   21101 MEMB 58   POPC H12X HAL2           0.09         1.008       0
   21102 MEMB 58   POPC H12Y HAL2           0.09         1.008       0
   21103 MEMB 58   POPC C313 CTL2          -0.18        12.011       0
   21104 MEMB 58   POPC H13X HAL2           0.09         1.008       0
   21105 MEMB 58   POPC H13Y HAL2           0.09         1.008       0
   21106 MEMB 58   POPC C314 CTL2          -0.18        12.011       0
   21107 MEMB 58   POPC H14X HAL2           0.09         1.008       0
   21108 MEMB 58   POPC H14Y HAL2           0.09         1.008       0
   21109 MEMB 58   POPC C315 CTL2          -0.18        12.011       0
   21110 MEMB 58   POPC H15X HAL2           0.09         1.008       0
   21111 MEMB 58   POPC H15Y HAL2           0.09         1.008       0
   21112 MEMB 58   POPC C316 CTL3          -0.27        12.011       0
   21113 MEMB 58   POPC H16X HAL3           0.09         1.008       0
   21114 MEMB 58   POPC H16Y HAL3           0.09         1.008       0
   21115 MEMB 58   POPC H16Z HAL3           0.09         1.008       0
   21116 MEMB 59   POPC N    NTL            -0.6        14.007       0
   21117 MEMB 59   POPC C12  CTL2           -0.1        12.011       0
   21118 MEMB 59   POPC H12A HL             0.25         1.008       0
   21119 MEMB 59   POPC H12B HL             0.25         1.008       0
   21120 MEMB 59   POPC C13  CTL5          -0.35        12.011       0
   21121 MEMB 59   POPC H13A HL             0.25         1.008       0
   21122 MEMB 59   POPC H13B HL             0.25         1.008       0
   21123 MEMB 59   POPC H13C HL             0.25         1.008       0
   21124 MEMB 59   POPC C14  CTL5          -0.35        12.011       0
   21125 MEMB 59   POPC H14A HL             0.25         1.008       0
   21126 MEMB 59   POPC H14B HL             0.25         1.008       0
   21127 MEMB 59   POPC H14C HL             0.25         1.008       0
   21128 MEMB 59   POPC C15  CTL5          -0.35        12.011       0
   21129 MEMB 59   POPC H15A HL             0.25         1.008       0
   21130 MEMB 59   POPC H15B HL             0.25         1.008       0
   21131 MEMB 59   POPC H15C HL             0.25         1.008       0
   21132 MEMB 59   POPC C11  CTL2          -0.08        12.011       0
   21133 MEMB 59   POPC H11A HAL2           0.09         1.008       0
   21134 MEMB 59   POPC H11B HAL2           0.09         1.008       0
   21135 MEMB 59   POPC P    PL              1.5        30.974       0
   21136 MEMB 59   POPC O13  O2L           -0.78       15.9994       0
   21137 MEMB 59   POPC O14  O2L           -0.78       15.9994       0
   21138 MEMB 59   POPC O12  OSLP          -0.57       15.9994       0
   21139 MEMB 59   POPC O11  OSLP          -0.57       15.9994       0
   21140 MEMB 59   POPC C1   CTL2          -0.08        12.011       0
   21141 MEMB 59   POPC HA   HAL2           0.09         1.008       0
   21142 MEMB 59   POPC HB   HAL2           0.09         1.008       0
   21143 MEMB 59   POPC C2   CTL1           0.17        12.011       0
   21144 MEMB 59   POPC HS   HAL1           0.09         1.008       0
   21145 MEMB 59   POPC O21  OSL           -0.49       15.9994       0
   21146 MEMB 59   POPC C21  CL              0.9        12.011       0
   21147 MEMB 59   POPC O22  OBL           -0.63       15.9994       0
   21148 MEMB 59   POPC C22  CTL2          -0.22        12.011       0
   21149 MEMB 59   POPC H2R  HAL2           0.09         1.008       0
   21150 MEMB 59   POPC H2S  HAL2           0.09         1.008       0
   21151 MEMB 59   POPC C3   CTL2           0.08        12.011       0
   21152 MEMB 59   POPC HX   HAL2           0.09         1.008       0
   21153 MEMB 59   POPC HY   HAL2           0.09         1.008       0
   21154 MEMB 59   POPC O31  OSL           -0.49       15.9994       0
   21155 MEMB 59   POPC C31  CL              0.9        12.011       0
   21156 MEMB 59   POPC O32  OBL           -0.63       15.9994       0
   21157 MEMB 59   POPC C32  CTL2          -0.22        12.011       0
   21158 MEMB 59   POPC H2X  HAL2           0.09         1.008       0
   21159 MEMB 59   POPC H2Y  HAL2           0.09         1.008       0
   21160 MEMB 59   POPC C23  CTL2          -0.18        12.011       0
   21161 MEMB 59   POPC H3R  HAL2           0.09         1.008       0
   21162 MEMB 59   POPC H3S  HAL2           0.09         1.008       0
   21163 MEMB 59   POPC C24  CTL2          -0.18        12.011       0
   21164 MEMB 59   POPC H4R  HAL2           0.09         1.008       0
   21165 MEMB 59   POPC H4S  HAL2           0.09         1.008       0
   21166 MEMB 59   POPC C25  CTL2          -0.18        12.011       0
   21167 MEMB 59   POPC H5R  HAL2           0.09         1.008       0
   21168 MEMB 59   POPC H5S  HAL2           0.09         1.008       0
   21169 MEMB 59   POPC C26  CTL2          -0.18        12.011       0
   21170 MEMB 59   POPC H6R  HAL2           0.09         1.008       0
   21171 MEMB 59   POPC H6S  HAL2           0.09         1.008       0
   21172 MEMB 59   POPC C27  CTL2          -0.18        12.011       0
   21173 MEMB 59   POPC H7R  HAL2           0.09         1.008       0
   21174 MEMB 59   POPC H7S  HAL2           0.09         1.008       0
   21175 MEMB 59   POPC C28  CTL2          -0.18        12.011       0
   21176 MEMB 59   POPC H8R  HAL2           0.09         1.008       0
   21177 MEMB 59   POPC H8S  HAL2           0.09         1.008       0
   21178 MEMB 59   POPC C29  CEL1          -0.15        12.011       0
   21179 MEMB 59   POPC H91  HEL1           0.15         1.008       0
   21180 MEMB 59   POPC C210 CEL1          -0.15        12.011       0
   21181 MEMB 59   POPC H101 HEL1           0.15         1.008       0
   21182 MEMB 59   POPC C211 CTL2          -0.18        12.011       0
   21183 MEMB 59   POPC H11R HAL2           0.09         1.008       0
   21184 MEMB 59   POPC H11S HAL2           0.09         1.008       0
   21185 MEMB 59   POPC C212 CTL2          -0.18        12.011       0
   21186 MEMB 59   POPC H12R HAL2           0.09         1.008       0
   21187 MEMB 59   POPC H12S HAL2           0.09         1.008       0
   21188 MEMB 59   POPC C213 CTL2          -0.18        12.011       0
   21189 MEMB 59   POPC H13R HAL2           0.09         1.008       0
   21190 MEMB 59   POPC H13S HAL2           0.09         1.008       0
   21191 MEMB 59   POPC C214 CTL2          -0.18        12.011       0
   21192 MEMB 59   POPC H14R HAL2           0.09         1.008       0
   21193 MEMB 59   POPC H14S HAL2           0.09         1.008       0
   21194 MEMB 59   POPC C215 CTL2          -0.18        12.011       0
   21195 MEMB 59   POPC H15R HAL2           0.09         1.008       0
   21196 MEMB 59   POPC H15S HAL2           0.09         1.008       0
   21197 MEMB 59   POPC C216 CTL2          -0.18        12.011       0
   21198 MEMB 59   POPC H16R HAL2           0.09         1.008       0
   21199 MEMB 59   POPC H16S HAL2           0.09         1.008       0
   21200 MEMB 59   POPC C217 CTL2          -0.18        12.011       0
   21201 MEMB 59   POPC H17R HAL2           0.09         1.008       0
   21202 MEMB 59   POPC H17S HAL2           0.09         1.008       0
   21203 MEMB 59   POPC C218 CTL3          -0.27        12.011       0
   21204 MEMB 59   POPC H18R HAL3           0.09         1.008       0
   21205 MEMB 59   POPC H18S HAL3           0.09         1.008       0
   21206 MEMB 59   POPC H18T HAL3           0.09         1.008       0
   21207 MEMB 59   POPC C33  CTL2          -0.18        12.011       0
   21208 MEMB 59   POPC H3X  HAL2           0.09         1.008       0
   21209 MEMB 59   POPC H3Y  HAL2           0.09         1.008       0
   21210 MEMB 59   POPC C34  CTL2          -0.18        12.011       0
   21211 MEMB 59   POPC H4X  HAL2           0.09         1.008       0
   21212 MEMB 59   POPC H4Y  HAL2           0.09         1.008       0
   21213 MEMB 59   POPC C35  CTL2          -0.18        12.011       0
   21214 MEMB 59   POPC H5X  HAL2           0.09         1.008       0
   21215 MEMB 59   POPC H5Y  HAL2           0.09         1.008       0
   21216 MEMB 59   POPC C36  CTL2          -0.18        12.011       0
   21217 MEMB 59   POPC H6X  HAL2           0.09         1.008       0
   21218 MEMB 59   POPC H6Y  HAL2           0.09         1.008       0
   21219 MEMB 59   POPC C37  CTL2          -0.18        12.011       0
   21220 MEMB 59   POPC H7X  HAL2           0.09         1.008       0
   21221 MEMB 59   POPC H7Y  HAL2           0.09         1.008       0
   21222 MEMB 59   POPC C38  CTL2          -0.18        12.011       0
   21223 MEMB 59   POPC H8X  HAL2           0.09         1.008       0
   21224 MEMB 59   POPC H8Y  HAL2           0.09         1.008       0
   21225 MEMB 59   POPC C39  CTL2          -0.18        12.011       0
   21226 MEMB 59   POPC H9X  HAL2           0.09         1.008       0
   21227 MEMB 59   POPC H9Y  HAL2           0.09         1.008       0
   21228 MEMB 59   POPC C310 CTL2          -0.18        12.011       0
   21229 MEMB 59   POPC H10X HAL2           0.09         1.008       0
   21230 MEMB 59   POPC H10Y HAL2           0.09         1.008       0
   21231 MEMB 59   POPC C311 CTL2          -0.18        12.011       0
   21232 MEMB 59   POPC H11X HAL2           0.09         1.008       0
   21233 MEMB 59   POPC H11Y HAL2           0.09         1.008       0
   21234 MEMB 59   POPC C312 CTL2          -0.18        12.011       0
   21235 MEMB 59   POPC H12X HAL2           0.09         1.008       0
   21236 MEMB 59   POPC H12Y HAL2           0.09         1.008       0
   21237 MEMB 59   POPC C313 CTL2          -0.18        12.011       0
   21238 MEMB 59   POPC H13X HAL2           0.09         1.008       0
   21239 MEMB 59   POPC H13Y HAL2           0.09         1.008       0
   21240 MEMB 59   POPC C314 CTL2          -0.18        12.011       0
   21241 MEMB 59   POPC H14X HAL2           0.09         1.008       0
   21242 MEMB 59   POPC H14Y HAL2           0.09         1.008       0
   21243 MEMB 59   POPC C315 CTL2          -0.18        12.011       0
   21244 MEMB 59   POPC H15X HAL2           0.09         1.008       0
   21245 MEMB 59   POPC H15Y HAL2           0.09         1.008       0
   21246 MEMB 59   POPC C316 CTL3          -0.27        12.011       0
   21247 MEMB 59   POPC H16X HAL3           0.09         1.008       0
   21248 MEMB 59   POPC H16Y HAL3           0.09         1.008       0
   21249 MEMB 59   POPC H16Z HAL3           0.09         1.008       0
   21250 MEMB 60   PSM  N    NTL            -0.6        14.007       0
   21251 MEMB 60   PSM  C15  CTL5          -0.35        12.011       0
   21252 MEMB 60   PSM  H15A HL             0.25         1.008       0
   21253 MEMB 60   PSM  H15B HL             0.25         1.008       0
   21254 MEMB 60   PSM  H15C HL             0.25         1.008       0
   21255 MEMB 60   PSM  C14  CTL5          -0.35        12.011       0
   21256 MEMB 60   PSM  H14A HL             0.25         1.008       0
   21257 MEMB 60   PSM  H14B HL             0.25         1.008       0
   21258 MEMB 60   PSM  H14C HL             0.25         1.008       0
   21259 MEMB 60   PSM  C13  CTL5          -0.35        12.011       0
   21260 MEMB 60   PSM  H13A HL             0.25         1.008       0
   21261 MEMB 60   PSM  H13B HL             0.25         1.008       0
   21262 MEMB 60   PSM  H13C HL             0.25         1.008       0
   21263 MEMB 60   PSM  C12  CTL2           -0.1        12.011       0
   21264 MEMB 60   PSM  H12A HL             0.25         1.008       0
   21265 MEMB 60   PSM  H12B HL             0.25         1.008       0
   21266 MEMB 60   PSM  C11  CTL2          -0.08        12.011       0
   21267 MEMB 60   PSM  H11A HAL2           0.09         1.008       0
   21268 MEMB 60   PSM  H11B HAL2           0.09         1.008       0
   21269 MEMB 60   PSM  P    PL              1.5        30.974       0
   21270 MEMB 60   PSM  O13  O2L           -0.78       15.9994       0
   21271 MEMB 60   PSM  O14  O2L           -0.78       15.9994       0
   21272 MEMB 60   PSM  O11  OSLP          -0.57       15.9994       0
   21273 MEMB 60   PSM  O12  OSLP          -0.57       15.9994       0
   21274 MEMB 60   PSM  C1S  CTL2          -0.08        12.011       0
   21275 MEMB 60   PSM  H1S  HAL2           0.09         1.008       0
   21276 MEMB 60   PSM  H1T  HAL2           0.09         1.008       0
   21277 MEMB 60   PSM  NF   NHL            -0.7        14.007       0
   21278 MEMB 60   PSM  HNF  H              0.35         1.008       0
   21279 MEMB 60   PSM  C2S  CTL1            0.3        12.011       0
   21280 MEMB 60   PSM  H2S  HAL1           0.05         1.008       0
   21281 MEMB 60   PSM  C3S  CTO1            0.5        12.011       0
   21282 MEMB 60   PSM  H3S  HAL1          -0.11         1.008       0
   21283 MEMB 60   PSM  O3   OHL           -0.69       15.9994       0
   21284 MEMB 60   PSM  HO3  HOL             0.3         1.008       0
   21285 MEMB 60   PSM  C4S  CEL3          -0.15        12.011       0
   21286 MEMB 60   PSM  H4S  HEL1           0.15         1.008       0
   21287 MEMB 60   PSM  C5S  CEL3          -0.15        12.011       0
   21288 MEMB 60   PSM  H5S  HEL1           0.15         1.008       0
   21289 MEMB 60   PSM  C6S  CTL2          -0.18        12.011       0
   21290 MEMB 60   PSM  H6S  HAL2           0.09         1.008       0
   21291 MEMB 60   PSM  H6T  HAL2           0.09         1.008       0
   21292 MEMB 60   PSM  C7S  CTL2          -0.18        12.011       0
   21293 MEMB 60   PSM  H7S  HAL2           0.09         1.008       0
   21294 MEMB 60   PSM  H7T  HAL2           0.09         1.008       0
   21295 MEMB 60   PSM  C8S  CTL2          -0.18        12.011       0
   21296 MEMB 60   PSM  H8S  HAL2           0.09         1.008       0
   21297 MEMB 60   PSM  H8T  HAL2           0.09         1.008       0
   21298 MEMB 60   PSM  C9S  CTL2          -0.18        12.011       0
   21299 MEMB 60   PSM  H9S  HAL2           0.09         1.008       0
   21300 MEMB 60   PSM  H9T  HAL2           0.09         1.008       0
   21301 MEMB 60   PSM  C10S CTL2          -0.18        12.011       0
   21302 MEMB 60   PSM  H10S HAL2           0.09         1.008       0
   21303 MEMB 60   PSM  H10T HAL2           0.09         1.008       0
   21304 MEMB 60   PSM  C11S CTL2          -0.18        12.011       0
   21305 MEMB 60   PSM  H11S HAL2           0.09         1.008       0
   21306 MEMB 60   PSM  H11T HAL2           0.09         1.008       0
   21307 MEMB 60   PSM  C12S CTL2          -0.18        12.011       0
   21308 MEMB 60   PSM  H12S HAL2           0.09         1.008       0
   21309 MEMB 60   PSM  H12T HAL2           0.09         1.008       0
   21310 MEMB 60   PSM  C13S CTL2          -0.18        12.011       0
   21311 MEMB 60   PSM  H13S HAL2           0.09         1.008       0
   21312 MEMB 60   PSM  H13T HAL2           0.09         1.008       0
   21313 MEMB 60   PSM  C14S CTL2          -0.18        12.011       0
   21314 MEMB 60   PSM  H14S HAL2           0.09         1.008       0
   21315 MEMB 60   PSM  H14T HAL2           0.09         1.008       0
   21316 MEMB 60   PSM  C15S CTL2          -0.18        12.011       0
   21317 MEMB 60   PSM  H15S HAL2           0.09         1.008       0
   21318 MEMB 60   PSM  H15T HAL2           0.09         1.008       0
   21319 MEMB 60   PSM  C16S CTL2          -0.18        12.011       0
   21320 MEMB 60   PSM  H16S HAL2           0.09         1.008       0
   21321 MEMB 60   PSM  H16T HAL2           0.09         1.008       0
   21322 MEMB 60   PSM  C17S CTL2          -0.18        12.011       0
   21323 MEMB 60   PSM  H17S HAL2           0.09         1.008       0
   21324 MEMB 60   PSM  H17T HAL2           0.09         1.008       0
   21325 MEMB 60   PSM  C18S CTL3          -0.27        12.011       0
   21326 MEMB 60   PSM  H18S HAL3           0.09         1.008       0
   21327 MEMB 60   PSM  H18T HAL3           0.09         1.008       0
   21328 MEMB 60   PSM  H18U HAL3           0.09         1.008       0
   21329 MEMB 60   PSM  C1F  C              0.55        12.011       0
   21330 MEMB 60   PSM  OF   O              -0.6        15.999       0
   21331 MEMB 60   PSM  C2F  CTL2          -0.07        12.011       0
   21332 MEMB 60   PSM  H2F  HAL2           0.06         1.008       0
   21333 MEMB 60   PSM  H2G  HAL2           0.06         1.008       0
   21334 MEMB 60   PSM  C3F  CTL2          -0.18        12.011       0
   21335 MEMB 60   PSM  H3F  HAL2           0.09         1.008       0
   21336 MEMB 60   PSM  H3G  HAL2           0.09         1.008       0
   21337 MEMB 60   PSM  C4F  CTL2          -0.18        12.011       0
   21338 MEMB 60   PSM  H4F  HAL2           0.09         1.008       0
   21339 MEMB 60   PSM  H4G  HAL2           0.09         1.008       0
   21340 MEMB 60   PSM  C5F  CTL2          -0.18        12.011       0
   21341 MEMB 60   PSM  H5F  HAL2           0.09         1.008       0
   21342 MEMB 60   PSM  H5G  HAL2           0.09         1.008       0
   21343 MEMB 60   PSM  C6F  CTL2          -0.18        12.011       0
   21344 MEMB 60   PSM  H6F  HAL2           0.09         1.008       0
   21345 MEMB 60   PSM  H6G  HAL2           0.09         1.008       0
   21346 MEMB 60   PSM  C7F  CTL2          -0.18        12.011       0
   21347 MEMB 60   PSM  H7F  HAL2           0.09         1.008       0
   21348 MEMB 60   PSM  H7G  HAL2           0.09         1.008       0
   21349 MEMB 60   PSM  C8F  CTL2          -0.18        12.011       0
   21350 MEMB 60   PSM  H8F  HAL2           0.09         1.008       0
   21351 MEMB 60   PSM  H8G  HAL2           0.09         1.008       0
   21352 MEMB 60   PSM  C9F  CTL2          -0.18        12.011       0
   21353 MEMB 60   PSM  H9F  HAL2           0.09         1.008       0
   21354 MEMB 60   PSM  H9G  HAL2           0.09         1.008       0
   21355 MEMB 60   PSM  C10F CTL2          -0.18        12.011       0
   21356 MEMB 60   PSM  H10F HAL2           0.09         1.008       0
   21357 MEMB 60   PSM  H10G HAL2           0.09         1.008       0
   21358 MEMB 60   PSM  C11F CTL2          -0.18        12.011       0
   21359 MEMB 60   PSM  H11F HAL2           0.09         1.008       0
   21360 MEMB 60   PSM  H11G HAL2           0.09         1.008       0
   21361 MEMB 60   PSM  C12F CTL2          -0.18        12.011       0
   21362 MEMB 60   PSM  H12F HAL2           0.09         1.008       0
   21363 MEMB 60   PSM  H12G HAL2           0.09         1.008       0
   21364 MEMB 60   PSM  C13F CTL2          -0.18        12.011       0
   21365 MEMB 60   PSM  H13F HAL2           0.09         1.008       0
   21366 MEMB 60   PSM  H13G HAL2           0.09         1.008       0
   21367 MEMB 60   PSM  C14F CTL2          -0.18        12.011       0
   21368 MEMB 60   PSM  H14F HAL2           0.09         1.008       0
   21369 MEMB 60   PSM  H14G HAL2           0.09         1.008       0
   21370 MEMB 60   PSM  C15F CTL2          -0.18        12.011       0
   21371 MEMB 60   PSM  H15F HAL2           0.09         1.008       0
   21372 MEMB 60   PSM  H15G HAL2           0.09         1.008       0
   21373 MEMB 60   PSM  C16F CTL3          -0.27        12.011       0
   21374 MEMB 60   PSM  H16F HAL3           0.09         1.008       0
   21375 MEMB 60   PSM  H16G HAL3           0.09         1.008       0
   21376 MEMB 60   PSM  H16H HAL3           0.09         1.008       0
   21377 MEMB 61   CHL1 C3   CRL1           0.14        12.011       0
   21378 MEMB 61   CHL1 H3   HGA1           0.09         1.008       0
   21379 MEMB 61   CHL1 O3   OHL           -0.66       15.9994       0
   21380 MEMB 61   CHL1 H3'  HOL            0.43         1.008       0
   21381 MEMB 61   CHL1 C4   CRL2          -0.18        12.011       0
   21382 MEMB 61   CHL1 H4A  HGA2           0.09         1.008       0
   21383 MEMB 61   CHL1 H4B  HGA2           0.09         1.008       0
   21384 MEMB 61   CHL1 C5   CEL1              0        12.011       0
   21385 MEMB 61   CHL1 C6   CEL1          -0.15        12.011       0
   21386 MEMB 61   CHL1 H6   HEL1           0.15         1.008       0
   21387 MEMB 61   CHL1 C7   CRL2          -0.18        12.011       0
   21388 MEMB 61   CHL1 H7A  HGA2           0.09         1.008       0
   21389 MEMB 61   CHL1 H7B  HGA2           0.09         1.008       0
   21390 MEMB 61   CHL1 C8   CRL1          -0.09        12.011       0
   21391 MEMB 61   CHL1 H8   HGA1           0.09         1.008       0
   21392 MEMB 61   CHL1 C14  CRL1          -0.09        12.011       0
   21393 MEMB 61   CHL1 H14  HGA1           0.09         1.008       0
   21394 MEMB 61   CHL1 C15  CRL2          -0.18        12.011       0
   21395 MEMB 61   CHL1 H15A HGA2           0.09         1.008       0
   21396 MEMB 61   CHL1 H15B HGA2           0.09         1.008       0
   21397 MEMB 61   CHL1 C16  CRL2          -0.18        12.011       0
   21398 MEMB 61   CHL1 H16A HGA2           0.09         1.008       0
   21399 MEMB 61   CHL1 H16B HGA2           0.09         1.008       0
   21400 MEMB 61   CHL1 C17  CRL1          -0.09        12.011       0
   21401 MEMB 61   CHL1 H17  HGA1           0.09         1.008       0
   21402 MEMB 61   CHL1 C13  CRL1              0        12.011       0
   21403 MEMB 61   CHL1 C18  CTL3          -0.27        12.011       0
   21404 MEMB 61   CHL1 H18A HAL3           0.09         1.008       0
   21405 MEMB 61   CHL1 H18B HAL3           0.09         1.008       0
   21406 MEMB 61   CHL1 H18C HAL3           0.09         1.008       0
   21407 MEMB 61   CHL1 C12  CRL2          -0.18        12.011       0
   21408 MEMB 61   CHL1 H12A HGA2           0.09         1.008       0
   21409 MEMB 61   CHL1 H12B HGA2           0.09         1.008       0
   21410 MEMB 61   CHL1 C11  CRL2          -0.18        12.011       0
   21411 MEMB 61   CHL1 H11A HGA2           0.09         1.008       0
   21412 MEMB 61   CHL1 H11B HGA2           0.09         1.008       0
   21413 MEMB 61   CHL1 C9   CRL1          -0.09        12.011       0
   21414 MEMB 61   CHL1 H9   HGA1           0.09         1.008       0
   21415 MEMB 61   CHL1 C10  CRL1              0        12.011       0
   21416 MEMB 61   CHL1 C19  CTL3          -0.27        12.011       0
   21417 MEMB 61   CHL1 H19A HAL3           0.09         1.008       0
   21418 MEMB 61   CHL1 H19B HAL3           0.09         1.008       0
   21419 MEMB 61   CHL1 H19C HAL3           0.09         1.008       0
   21420 MEMB 61   CHL1 C1   CRL2          -0.18        12.011       0
   21421 MEMB 61   CHL1 H1A  HGA2           0.09         1.008       0
   21422 MEMB 61   CHL1 H1B  HGA2           0.09         1.008       0
   21423 MEMB 61   CHL1 C2   CRL2          -0.18        12.011       0
   21424 MEMB 61   CHL1 H2A  HGA2           0.09         1.008       0
   21425 MEMB 61   CHL1 H2B  HGA2           0.09         1.008       0
   21426 MEMB 61   CHL1 C20  CTL1          -0.09        12.011       0
   21427 MEMB 61   CHL1 H20  HAL1           0.09         1.008       0
   21428 MEMB 61   CHL1 C21  CTL3          -0.27        12.011       0
   21429 MEMB 61   CHL1 H21A HAL3           0.09         1.008       0
   21430 MEMB 61   CHL1 H21B HAL3           0.09         1.008       0
   21431 MEMB 61   CHL1 H21C HAL3           0.09         1.008       0
   21432 MEMB 61   CHL1 C22  CTL2          -0.18        12.011       0
   21433 MEMB 61   CHL1 H22A HAL2           0.09         1.008       0
   21434 MEMB 61   CHL1 H22B HAL2           0.09         1.008       0
   21435 MEMB 61   CHL1 C23  CTL2          -0.18        12.011       0
   21436 MEMB 61   CHL1 H23A HAL2           0.09         1.008       0
   21437 MEMB 61   CHL1 H23B HAL2           0.09         1.008       0
   21438 MEMB 61   CHL1 C24  CTL2          -0.18        12.011       0
   21439 MEMB 61   CHL1 H24A HAL2           0.09         1.008       0
   21440 MEMB 61   CHL1 H24B HAL2           0.09         1.008       0
   21441 MEMB 61   CHL1 C25  CTL1          -0.09        12.011       0
   21442 MEMB 61   CHL1 H25  HAL1           0.09         1.008       0
   21443 MEMB 61   CHL1 C26  CTL3          -0.27        12.011       0
   21444 MEMB 61   CHL1 H26A HAL3           0.09         1.008       0
   21445 MEMB 61   CHL1 H26B HAL3           0.09         1.008       0
   21446 MEMB 61   CHL1 H26C HAL3           0.09         1.008       0
   21447 MEMB 61   CHL1 C27  CTL3          -0.27        12.011       0
   21448 MEMB 61   CHL1 H27A HAL3           0.09         1.008       0
   21449 MEMB 61   CHL1 H27B HAL3           0.09         1.008       0
   21450 MEMB 61   CHL1 H27C HAL3           0.09         1.008       0
   21451 MEMB 62   CHL1 C3   CRL1           0.14        12.011       0
   21452 MEMB 62   CHL1 H3   HGA1           0.09         1.008       0
   21453 MEMB 62   CHL1 O3   OHL           -0.66       15.9994       0
   21454 MEMB 62   CHL1 H3'  HOL            0.43         1.008       0
   21455 MEMB 62   CHL1 C4   CRL2          -0.18        12.011       0
   21456 MEMB 62   CHL1 H4A  HGA2           0.09         1.008       0
   21457 MEMB 62   CHL1 H4B  HGA2           0.09         1.008       0
   21458 MEMB 62   CHL1 C5   CEL1              0        12.011       0
   21459 MEMB 62   CHL1 C6   CEL1          -0.15        12.011       0
   21460 MEMB 62   CHL1 H6   HEL1           0.15         1.008       0
   21461 MEMB 62   CHL1 C7   CRL2          -0.18        12.011       0
   21462 MEMB 62   CHL1 H7A  HGA2           0.09         1.008       0
   21463 MEMB 62   CHL1 H7B  HGA2           0.09         1.008       0
   21464 MEMB 62   CHL1 C8   CRL1          -0.09        12.011       0
   21465 MEMB 62   CHL1 H8   HGA1           0.09         1.008       0
   21466 MEMB 62   CHL1 C14  CRL1          -0.09        12.011       0
   21467 MEMB 62   CHL1 H14  HGA1           0.09         1.008       0
   21468 MEMB 62   CHL1 C15  CRL2          -0.18        12.011       0
   21469 MEMB 62   CHL1 H15A HGA2           0.09         1.008       0
   21470 MEMB 62   CHL1 H15B HGA2           0.09         1.008       0
   21471 MEMB 62   CHL1 C16  CRL2          -0.18        12.011       0
   21472 MEMB 62   CHL1 H16A HGA2           0.09         1.008       0
   21473 MEMB 62   CHL1 H16B HGA2           0.09         1.008       0
   21474 MEMB 62   CHL1 C17  CRL1          -0.09        12.011       0
   21475 MEMB 62   CHL1 H17  HGA1           0.09         1.008       0
   21476 MEMB 62   CHL1 C13  CRL1              0        12.011       0
   21477 MEMB 62   CHL1 C18  CTL3          -0.27        12.011       0
   21478 MEMB 62   CHL1 H18A HAL3           0.09         1.008       0
   21479 MEMB 62   CHL1 H18B HAL3           0.09         1.008       0
   21480 MEMB 62   CHL1 H18C HAL3           0.09         1.008       0
   21481 MEMB 62   CHL1 C12  CRL2          -0.18        12.011       0
   21482 MEMB 62   CHL1 H12A HGA2           0.09         1.008       0
   21483 MEMB 62   CHL1 H12B HGA2           0.09         1.008       0
   21484 MEMB 62   CHL1 C11  CRL2          -0.18        12.011       0
   21485 MEMB 62   CHL1 H11A HGA2           0.09         1.008       0
   21486 MEMB 62   CHL1 H11B HGA2           0.09         1.008       0
   21487 MEMB 62   CHL1 C9   CRL1          -0.09        12.011       0
   21488 MEMB 62   CHL1 H9   HGA1           0.09         1.008       0
   21489 MEMB 62   CHL1 C10  CRL1              0        12.011       0
   21490 MEMB 62   CHL1 C19  CTL3          -0.27        12.011       0
   21491 MEMB 62   CHL1 H19A HAL3           0.09         1.008       0
   21492 MEMB 62   CHL1 H19B HAL3           0.09         1.008       0
   21493 MEMB 62   CHL1 H19C HAL3           0.09         1.008       0
   21494 MEMB 62   CHL1 C1   CRL2          -0.18        12.011       0
   21495 MEMB 62   CHL1 H1A  HGA2           0.09         1.008       0
   21496 MEMB 62   CHL1 H1B  HGA2           0.09         1.008       0
   21497 MEMB 62   CHL1 C2   CRL2          -0.18        12.011       0
   21498 MEMB 62   CHL1 H2A  HGA2           0.09         1.008       0
   21499 MEMB 62   CHL1 H2B  HGA2           0.09         1.008       0
   21500 MEMB 62   CHL1 C20  CTL1          -0.09        12.011       0
   21501 MEMB 62   CHL1 H20  HAL1           0.09         1.008       0
   21502 MEMB 62   CHL1 C21  CTL3          -0.27        12.011       0
   21503 MEMB 62   CHL1 H21A HAL3           0.09         1.008       0
   21504 MEMB 62   CHL1 H21B HAL3           0.09         1.008       0
   21505 MEMB 62   CHL1 H21C HAL3           0.09         1.008       0
   21506 MEMB 62   CHL1 C22  CTL2          -0.18        12.011       0
   21507 MEMB 62   CHL1 H22A HAL2           0.09         1.008       0
   21508 MEMB 62   CHL1 H22B HAL2           0.09         1.008       0
   21509 MEMB 62   CHL1 C23  CTL2          -0.18        12.011       0
   21510 MEMB 62   CHL1 H23A HAL2           0.09         1.008       0
   21511 MEMB 62   CHL1 H23B HAL2           0.09         1.008       0
   21512 MEMB 62   CHL1 C24  CTL2          -0.18        12.011       0
   21513 MEMB 62   CHL1 H24A HAL2           0.09         1.008       0
   21514 MEMB 62   CHL1 H24B HAL2           0.09         1.008       0
   21515 MEMB 62   CHL1 C25  CTL1          -0.09        12.011       0
   21516 MEMB 62   CHL1 H25  HAL1           0.09         1.008       0
   21517 MEMB 62   CHL1 C26  CTL3          -0.27        12.011       0
   21518 MEMB 62   CHL1 H26A HAL3           0.09         1.008       0
   21519 MEMB 62   CHL1 H26B HAL3           0.09         1.008       0
   21520 MEMB 62   CHL1 H26C HAL3           0.09         1.008       0
   21521 MEMB 62   CHL1 C27  CTL3          -0.27        12.011       0
   21522 MEMB 62   CHL1 H27A HAL3           0.09         1.008       0
   21523 MEMB 62   CHL1 H27B HAL3           0.09         1.008       0
   21524 MEMB 62   CHL1 H27C HAL3           0.09         1.008       0
   21525 MEMB 63   CHL1 C3   CRL1           0.14        12.011       0
   21526 MEMB 63   CHL1 H3   HGA1           0.09         1.008       0
   21527 MEMB 63   CHL1 O3   OHL           -0.66       15.9994       0
   21528 MEMB 63   CHL1 H3'  HOL            0.43         1.008       0
   21529 MEMB 63   CHL1 C4   CRL2          -0.18        12.011       0
   21530 MEMB 63   CHL1 H4A  HGA2           0.09         1.008       0
   21531 MEMB 63   CHL1 H4B  HGA2           0.09         1.008       0
   21532 MEMB 63   CHL1 C5   CEL1              0        12.011       0
   21533 MEMB 63   CHL1 C6   CEL1          -0.15        12.011       0
   21534 MEMB 63   CHL1 H6   HEL1           0.15         1.008       0
   21535 MEMB 63   CHL1 C7   CRL2          -0.18        12.011       0
   21536 MEMB 63   CHL1 H7A  HGA2           0.09         1.008       0
   21537 MEMB 63   CHL1 H7B  HGA2           0.09         1.008       0
   21538 MEMB 63   CHL1 C8   CRL1          -0.09        12.011       0
   21539 MEMB 63   CHL1 H8   HGA1           0.09         1.008       0
   21540 MEMB 63   CHL1 C14  CRL1          -0.09        12.011       0
   21541 MEMB 63   CHL1 H14  HGA1           0.09         1.008       0
   21542 MEMB 63   CHL1 C15  CRL2          -0.18        12.011       0
   21543 MEMB 63   CHL1 H15A HGA2           0.09         1.008       0
   21544 MEMB 63   CHL1 H15B HGA2           0.09         1.008       0
   21545 MEMB 63   CHL1 C16  CRL2          -0.18        12.011       0
   21546 MEMB 63   CHL1 H16A HGA2           0.09         1.008       0
   21547 MEMB 63   CHL1 H16B HGA2           0.09         1.008       0
   21548 MEMB 63   CHL1 C17  CRL1          -0.09        12.011       0
   21549 MEMB 63   CHL1 H17  HGA1           0.09         1.008       0
   21550 MEMB 63   CHL1 C13  CRL1              0        12.011       0
   21551 MEMB 63   CHL1 C18  CTL3          -0.27        12.011       0
   21552 MEMB 63   CHL1 H18A HAL3           0.09         1.008       0
   21553 MEMB 63   CHL1 H18B HAL3           0.09         1.008       0
   21554 MEMB 63   CHL1 H18C HAL3           0.09         1.008       0
   21555 MEMB 63   CHL1 C12  CRL2          -0.18        12.011       0
   21556 MEMB 63   CHL1 H12A HGA2           0.09         1.008       0
   21557 MEMB 63   CHL1 H12B HGA2           0.09         1.008       0
   21558 MEMB 63   CHL1 C11  CRL2          -0.18        12.011       0
   21559 MEMB 63   CHL1 H11A HGA2           0.09         1.008       0
   21560 MEMB 63   CHL1 H11B HGA2           0.09         1.008       0
   21561 MEMB 63   CHL1 C9   CRL1          -0.09        12.011       0
   21562 MEMB 63   CHL1 H9   HGA1           0.09         1.008       0
   21563 MEMB 63   CHL1 C10  CRL1              0        12.011       0
   21564 MEMB 63   CHL1 C19  CTL3          -0.27        12.011       0
   21565 MEMB 63   CHL1 H19A HAL3           0.09         1.008       0
   21566 MEMB 63   CHL1 H19B HAL3           0.09         1.008       0
   21567 MEMB 63   CHL1 H19C HAL3           0.09         1.008       0
   21568 MEMB 63   CHL1 C1   CRL2          -0.18        12.011       0
   21569 MEMB 63   CHL1 H1A  HGA2           0.09         1.008       0
   21570 MEMB 63   CHL1 H1B  HGA2           0.09         1.008       0
   21571 MEMB 63   CHL1 C2   CRL2          -0.18        12.011       0
   21572 MEMB 63   CHL1 H2A  HGA2           0.09         1.008       0
   21573 MEMB 63   CHL1 H2B  HGA2           0.09         1.008       0
   21574 MEMB 63   CHL1 C20  CTL1          -0.09        12.011       0
   21575 MEMB 63   CHL1 H20  HAL1           0.09         1.008       0
   21576 MEMB 63   CHL1 C21  CTL3          -0.27        12.011       0
   21577 MEMB 63   CHL1 H21A HAL3           0.09         1.008       0
   21578 MEMB 63   CHL1 H21B HAL3           0.09         1.008       0
   21579 MEMB 63   CHL1 H21C HAL3           0.09         1.008       0
   21580 MEMB 63   CHL1 C22  CTL2          -0.18        12.011       0
   21581 MEMB 63   CHL1 H22A HAL2           0.09         1.008       0
   21582 MEMB 63   CHL1 H22B HAL2           0.09         1.008       0
   21583 MEMB 63   CHL1 C23  CTL2          -0.18        12.011       0
   21584 MEMB 63   CHL1 H23A HAL2           0.09         1.008       0
   21585 MEMB 63   CHL1 H23B HAL2           0.09         1.008       0
   21586 MEMB 63   CHL1 C24  CTL2          -0.18        12.011       0
   21587 MEMB 63   CHL1 H24A HAL2           0.09         1.008       0
   21588 MEMB 63   CHL1 H24B HAL2           0.09         1.008       0
   21589 MEMB 63   CHL1 C25  CTL1          -0.09        12.011       0
   21590 MEMB 63   CHL1 H25  HAL1           0.09         1.008       0
   21591 MEMB 63   CHL1 C26  CTL3          -0.27        12.011       0
   21592 MEMB 63   CHL1 H26A HAL3           0.09         1.008       0
   21593 MEMB 63   CHL1 H26B HAL3           0.09         1.008       0
   21594 MEMB 63   CHL1 H26C HAL3           0.09         1.008       0
   21595 MEMB 63   CHL1 C27  CTL3          -0.27        12.011       0
   21596 MEMB 63   CHL1 H27A HAL3           0.09         1.008       0
   21597 MEMB 63   CHL1 H27B HAL3           0.09         1.008       0
   21598 MEMB 63   CHL1 H27C HAL3           0.09         1.008       0
   21599 MEMB 64   CHL1 C3   CRL1           0.14        12.011       0
   21600 MEMB 64   CHL1 H3   HGA1           0.09         1.008       0
   21601 MEMB 64   CHL1 O3   OHL           -0.66       15.9994       0
   21602 MEMB 64   CHL1 H3'  HOL            0.43         1.008       0
   21603 MEMB 64   CHL1 C4   CRL2          -0.18        12.011       0
   21604 MEMB 64   CHL1 H4A  HGA2           0.09         1.008       0
   21605 MEMB 64   CHL1 H4B  HGA2           0.09         1.008       0
   21606 MEMB 64   CHL1 C5   CEL1              0        12.011       0
   21607 MEMB 64   CHL1 C6   CEL1          -0.15        12.011       0
   21608 MEMB 64   CHL1 H6   HEL1           0.15         1.008       0
   21609 MEMB 64   CHL1 C7   CRL2          -0.18        12.011       0
   21610 MEMB 64   CHL1 H7A  HGA2           0.09         1.008       0
   21611 MEMB 64   CHL1 H7B  HGA2           0.09         1.008       0
   21612 MEMB 64   CHL1 C8   CRL1          -0.09        12.011       0
   21613 MEMB 64   CHL1 H8   HGA1           0.09         1.008       0
   21614 MEMB 64   CHL1 C14  CRL1          -0.09        12.011       0
   21615 MEMB 64   CHL1 H14  HGA1           0.09         1.008       0
   21616 MEMB 64   CHL1 C15  CRL2          -0.18        12.011       0
   21617 MEMB 64   CHL1 H15A HGA2           0.09         1.008       0
   21618 MEMB 64   CHL1 H15B HGA2           0.09         1.008       0
   21619 MEMB 64   CHL1 C16  CRL2          -0.18        12.011       0
   21620 MEMB 64   CHL1 H16A HGA2           0.09         1.008       0
   21621 MEMB 64   CHL1 H16B HGA2           0.09         1.008       0
   21622 MEMB 64   CHL1 C17  CRL1          -0.09        12.011       0
   21623 MEMB 64   CHL1 H17  HGA1           0.09         1.008       0
   21624 MEMB 64   CHL1 C13  CRL1              0        12.011       0
   21625 MEMB 64   CHL1 C18  CTL3          -0.27        12.011       0
   21626 MEMB 64   CHL1 H18A HAL3           0.09         1.008       0
   21627 MEMB 64   CHL1 H18B HAL3           0.09         1.008       0
   21628 MEMB 64   CHL1 H18C HAL3           0.09         1.008       0
   21629 MEMB 64   CHL1 C12  CRL2          -0.18        12.011       0
   21630 MEMB 64   CHL1 H12A HGA2           0.09         1.008       0
   21631 MEMB 64   CHL1 H12B HGA2           0.09         1.008       0
   21632 MEMB 64   CHL1 C11  CRL2          -0.18        12.011       0
   21633 MEMB 64   CHL1 H11A HGA2           0.09         1.008       0
   21634 MEMB 64   CHL1 H11B HGA2           0.09         1.008       0
   21635 MEMB 64   CHL1 C9   CRL1          -0.09        12.011       0
   21636 MEMB 64   CHL1 H9   HGA1           0.09         1.008       0
   21637 MEMB 64   CHL1 C10  CRL1              0        12.011       0
   21638 MEMB 64   CHL1 C19  CTL3          -0.27        12.011       0
   21639 MEMB 64   CHL1 H19A HAL3           0.09         1.008       0
   21640 MEMB 64   CHL1 H19B HAL3           0.09         1.008       0
   21641 MEMB 64   CHL1 H19C HAL3           0.09         1.008       0
   21642 MEMB 64   CHL1 C1   CRL2          -0.18        12.011       0
   21643 MEMB 64   CHL1 H1A  HGA2           0.09         1.008       0
   21644 MEMB 64   CHL1 H1B  HGA2           0.09         1.008       0
   21645 MEMB 64   CHL1 C2   CRL2          -0.18        12.011       0
   21646 MEMB 64   CHL1 H2A  HGA2           0.09         1.008       0
   21647 MEMB 64   CHL1 H2B  HGA2           0.09         1.008       0
   21648 MEMB 64   CHL1 C20  CTL1          -0.09        12.011       0
   21649 MEMB 64   CHL1 H20  HAL1           0.09         1.008       0
   21650 MEMB 64   CHL1 C21  CTL3          -0.27        12.011       0
   21651 MEMB 64   CHL1 H21A HAL3           0.09         1.008       0
   21652 MEMB 64   CHL1 H21B HAL3           0.09         1.008       0
   21653 MEMB 64   CHL1 H21C HAL3           0.09         1.008       0
   21654 MEMB 64   CHL1 C22  CTL2          -0.18        12.011       0
   21655 MEMB 64   CHL1 H22A HAL2           0.09         1.008       0
   21656 MEMB 64   CHL1 H22B HAL2           0.09         1.008       0
   21657 MEMB 64   CHL1 C23  CTL2          -0.18        12.011       0
   21658 MEMB 64   CHL1 H23A HAL2           0.09         1.008       0
   21659 MEMB 64   CHL1 H23B HAL2           0.09         1.008       0
   21660 MEMB 64   CHL1 C24  CTL2          -0.18        12.011       0
   21661 MEMB 64   CHL1 H24A HAL2           0.09         1.008       0
   21662 MEMB 64   CHL1 H24B HAL2           0.09         1.008       0
   21663 MEMB 64   CHL1 C25  CTL1          -0.09        12.011       0
   21664 MEMB 64   CHL1 H25  HAL1           0.09         1.008       0
   21665 MEMB 64   CHL1 C26  CTL3          -0.27        12.011       0
   21666 MEMB 64   CHL1 H26A HAL3           0.09         1.008       0
   21667 MEMB 64   CHL1 H26B HAL3           0.09         1.008       0
   21668 MEMB 64   CHL1 H26C HAL3           0.09         1.008       0
   21669 MEMB 64   CHL1 C27  CTL3          -0.27        12.011       0
   21670 MEMB 64   CHL1 H27A HAL3           0.09         1.008       0
   21671 MEMB 64   CHL1 H27B HAL3           0.09         1.008       0
   21672 MEMB 64   CHL1 H27C HAL3           0.09         1.008       0
   21673 MEMB 65   CHL1 C3   CRL1           0.14        12.011       0
   21674 MEMB 65   CHL1 H3   HGA1           0.09         1.008       0
   21675 MEMB 65   CHL1 O3   OHL           -0.66       15.9994       0
   21676 MEMB 65   CHL1 H3'  HOL            0.43         1.008       0
   21677 MEMB 65   CHL1 C4   CRL2          -0.18        12.011       0
   21678 MEMB 65   CHL1 H4A  HGA2           0.09         1.008       0
   21679 MEMB 65   CHL1 H4B  HGA2           0.09         1.008       0
   21680 MEMB 65   CHL1 C5   CEL1              0        12.011       0
   21681 MEMB 65   CHL1 C6   CEL1          -0.15        12.011       0
   21682 MEMB 65   CHL1 H6   HEL1           0.15         1.008       0
   21683 MEMB 65   CHL1 C7   CRL2          -0.18        12.011       0
   21684 MEMB 65   CHL1 H7A  HGA2           0.09         1.008       0
   21685 MEMB 65   CHL1 H7B  HGA2           0.09         1.008       0
   21686 MEMB 65   CHL1 C8   CRL1          -0.09        12.011       0
   21687 MEMB 65   CHL1 H8   HGA1           0.09         1.008       0
   21688 MEMB 65   CHL1 C14  CRL1          -0.09        12.011       0
   21689 MEMB 65   CHL1 H14  HGA1           0.09         1.008       0
   21690 MEMB 65   CHL1 C15  CRL2          -0.18        12.011       0
   21691 MEMB 65   CHL1 H15A HGA2           0.09         1.008       0
   21692 MEMB 65   CHL1 H15B HGA2           0.09         1.008       0
   21693 MEMB 65   CHL1 C16  CRL2          -0.18        12.011       0
   21694 MEMB 65   CHL1 H16A HGA2           0.09         1.008       0
   21695 MEMB 65   CHL1 H16B HGA2           0.09         1.008       0
   21696 MEMB 65   CHL1 C17  CRL1          -0.09        12.011       0
   21697 MEMB 65   CHL1 H17  HGA1           0.09         1.008       0
   21698 MEMB 65   CHL1 C13  CRL1              0        12.011       0
   21699 MEMB 65   CHL1 C18  CTL3          -0.27        12.011       0
   21700 MEMB 65   CHL1 H18A HAL3           0.09         1.008       0
   21701 MEMB 65   CHL1 H18B HAL3           0.09         1.008       0
   21702 MEMB 65   CHL1 H18C HAL3           0.09         1.008       0
   21703 MEMB 65   CHL1 C12  CRL2          -0.18        12.011       0
   21704 MEMB 65   CHL1 H12A HGA2           0.09         1.008       0
   21705 MEMB 65   CHL1 H12B HGA2           0.09         1.008       0
   21706 MEMB 65   CHL1 C11  CRL2          -0.18        12.011       0
   21707 MEMB 65   CHL1 H11A HGA2           0.09         1.008       0
   21708 MEMB 65   CHL1 H11B HGA2           0.09         1.008       0
   21709 MEMB 65   CHL1 C9   CRL1          -0.09        12.011       0
   21710 MEMB 65   CHL1 H9   HGA1           0.09         1.008       0
   21711 MEMB 65   CHL1 C10  CRL1              0        12.011       0
   21712 MEMB 65   CHL1 C19  CTL3          -0.27        12.011       0
   21713 MEMB 65   CHL1 H19A HAL3           0.09         1.008       0
   21714 MEMB 65   CHL1 H19B HAL3           0.09         1.008       0
   21715 MEMB 65   CHL1 H19C HAL3           0.09         1.008       0
   21716 MEMB 65   CHL1 C1   CRL2          -0.18        12.011       0
   21717 MEMB 65   CHL1 H1A  HGA2           0.09         1.008       0
   21718 MEMB 65   CHL1 H1B  HGA2           0.09         1.008       0
   21719 MEMB 65   CHL1 C2   CRL2          -0.18        12.011       0
   21720 MEMB 65   CHL1 H2A  HGA2           0.09         1.008       0
   21721 MEMB 65   CHL1 H2B  HGA2           0.09         1.008       0
   21722 MEMB 65   CHL1 C20  CTL1          -0.09        12.011       0
   21723 MEMB 65   CHL1 H20  HAL1           0.09         1.008       0
   21724 MEMB 65   CHL1 C21  CTL3          -0.27        12.011       0
   21725 MEMB 65   CHL1 H21A HAL3           0.09         1.008       0
   21726 MEMB 65   CHL1 H21B HAL3           0.09         1.008       0
   21727 MEMB 65   CHL1 H21C HAL3           0.09         1.008       0
   21728 MEMB 65   CHL1 C22  CTL2          -0.18        12.011       0
   21729 MEMB 65   CHL1 H22A HAL2           0.09         1.008       0
   21730 MEMB 65   CHL1 H22B HAL2           0.09         1.008       0
   21731 MEMB 65   CHL1 C23  CTL2          -0.18        12.011       0
   21732 MEMB 65   CHL1 H23A HAL2           0.09         1.008       0
   21733 MEMB 65   CHL1 H23B HAL2           0.09         1.008       0
   21734 MEMB 65   CHL1 C24  CTL2          -0.18        12.011       0
   21735 MEMB 65   CHL1 H24A HAL2           0.09         1.008       0
   21736 MEMB 65   CHL1 H24B HAL2           0.09         1.008       0
   21737 MEMB 65   CHL1 C25  CTL1          -0.09        12.011       0
   21738 MEMB 65   CHL1 H25  HAL1           0.09         1.008       0
   21739 MEMB 65   CHL1 C26  CTL3          -0.27        12.011       0
   21740 MEMB 65   CHL1 H26A HAL3           0.09         1.008       0
   21741 MEMB 65   CHL1 H26B HAL3           0.09         1.008       0
   21742 MEMB 65   CHL1 H26C HAL3           0.09         1.008       0
   21743 MEMB 65   CHL1 C27  CTL3          -0.27        12.011       0
   21744 MEMB 65   CHL1 H27A HAL3           0.09         1.008       0
   21745 MEMB 65   CHL1 H27B HAL3           0.09         1.008       0
   21746 MEMB 65   CHL1 H27C HAL3           0.09         1.008       0
   21747 MEMB 66   CHL1 C3   CRL1           0.14        12.011       0
   21748 MEMB 66   CHL1 H3   HGA1           0.09         1.008       0
   21749 MEMB 66   CHL1 O3   OHL           -0.66       15.9994       0
   21750 MEMB 66   CHL1 H3'  HOL            0.43         1.008       0
   21751 MEMB 66   CHL1 C4   CRL2          -0.18        12.011       0
   21752 MEMB 66   CHL1 H4A  HGA2           0.09         1.008       0
   21753 MEMB 66   CHL1 H4B  HGA2           0.09         1.008       0
   21754 MEMB 66   CHL1 C5   CEL1              0        12.011       0
   21755 MEMB 66   CHL1 C6   CEL1          -0.15        12.011       0
   21756 MEMB 66   CHL1 H6   HEL1           0.15         1.008       0
   21757 MEMB 66   CHL1 C7   CRL2          -0.18        12.011       0
   21758 MEMB 66   CHL1 H7A  HGA2           0.09         1.008       0
   21759 MEMB 66   CHL1 H7B  HGA2           0.09         1.008       0
   21760 MEMB 66   CHL1 C8   CRL1          -0.09        12.011       0
   21761 MEMB 66   CHL1 H8   HGA1           0.09         1.008       0
   21762 MEMB 66   CHL1 C14  CRL1          -0.09        12.011       0
   21763 MEMB 66   CHL1 H14  HGA1           0.09         1.008       0
   21764 MEMB 66   CHL1 C15  CRL2          -0.18        12.011       0
   21765 MEMB 66   CHL1 H15A HGA2           0.09         1.008       0
   21766 MEMB 66   CHL1 H15B HGA2           0.09         1.008       0
   21767 MEMB 66   CHL1 C16  CRL2          -0.18        12.011       0
   21768 MEMB 66   CHL1 H16A HGA2           0.09         1.008       0
   21769 MEMB 66   CHL1 H16B HGA2           0.09         1.008       0
   21770 MEMB 66   CHL1 C17  CRL1          -0.09        12.011       0
   21771 MEMB 66   CHL1 H17  HGA1           0.09         1.008       0
   21772 MEMB 66   CHL1 C13  CRL1              0        12.011       0
   21773 MEMB 66   CHL1 C18  CTL3          -0.27        12.011       0
   21774 MEMB 66   CHL1 H18A HAL3           0.09         1.008       0
   21775 MEMB 66   CHL1 H18B HAL3           0.09         1.008       0
   21776 MEMB 66   CHL1 H18C HAL3           0.09         1.008       0
   21777 MEMB 66   CHL1 C12  CRL2          -0.18        12.011       0
   21778 MEMB 66   CHL1 H12A HGA2           0.09         1.008       0
   21779 MEMB 66   CHL1 H12B HGA2           0.09         1.008       0
   21780 MEMB 66   CHL1 C11  CRL2          -0.18        12.011       0
   21781 MEMB 66   CHL1 H11A HGA2           0.09         1.008       0
   21782 MEMB 66   CHL1 H11B HGA2           0.09         1.008       0
   21783 MEMB 66   CHL1 C9   CRL1          -0.09        12.011       0
   21784 MEMB 66   CHL1 H9   HGA1           0.09         1.008       0
   21785 MEMB 66   CHL1 C10  CRL1              0        12.011       0
   21786 MEMB 66   CHL1 C19  CTL3          -0.27        12.011       0
   21787 MEMB 66   CHL1 H19A HAL3           0.09         1.008       0
   21788 MEMB 66   CHL1 H19B HAL3           0.09         1.008       0
   21789 MEMB 66   CHL1 H19C HAL3           0.09         1.008       0
   21790 MEMB 66   CHL1 C1   CRL2          -0.18        12.011       0
   21791 MEMB 66   CHL1 H1A  HGA2           0.09         1.008       0
   21792 MEMB 66   CHL1 H1B  HGA2           0.09         1.008       0
   21793 MEMB 66   CHL1 C2   CRL2          -0.18        12.011       0
   21794 MEMB 66   CHL1 H2A  HGA2           0.09         1.008       0
   21795 MEMB 66   CHL1 H2B  HGA2           0.09         1.008       0
   21796 MEMB 66   CHL1 C20  CTL1          -0.09        12.011       0
   21797 MEMB 66   CHL1 H20  HAL1           0.09         1.008       0
   21798 MEMB 66   CHL1 C21  CTL3          -0.27        12.011       0
   21799 MEMB 66   CHL1 H21A HAL3           0.09         1.008       0
   21800 MEMB 66   CHL1 H21B HAL3           0.09         1.008       0
   21801 MEMB 66   CHL1 H21C HAL3           0.09         1.008       0
   21802 MEMB 66   CHL1 C22  CTL2          -0.18        12.011       0
   21803 MEMB 66   CHL1 H22A HAL2           0.09         1.008       0
   21804 MEMB 66   CHL1 H22B HAL2           0.09         1.008       0
   21805 MEMB 66   CHL1 C23  CTL2          -0.18        12.011       0
   21806 MEMB 66   CHL1 H23A HAL2           0.09         1.008       0
   21807 MEMB 66   CHL1 H23B HAL2           0.09         1.008       0
   21808 MEMB 66   CHL1 C24  CTL2          -0.18        12.011       0
   21809 MEMB 66   CHL1 H24A HAL2           0.09         1.008       0
   21810 MEMB 66   CHL1 H24B HAL2           0.09         1.008       0
   21811 MEMB 66   CHL1 C25  CTL1          -0.09        12.011       0
   21812 MEMB 66   CHL1 H25  HAL1           0.09         1.008       0
   21813 MEMB 66   CHL1 C26  CTL3          -0.27        12.011       0
   21814 MEMB 66   CHL1 H26A HAL3           0.09         1.008       0
   21815 MEMB 66   CHL1 H26B HAL3           0.09         1.008       0
   21816 MEMB 66   CHL1 H26C HAL3           0.09         1.008       0
   21817 MEMB 66   CHL1 C27  CTL3          -0.27        12.011       0
   21818 MEMB 66   CHL1 H27A HAL3           0.09         1.008       0
   21819 MEMB 66   CHL1 H27B HAL3           0.09         1.008       0
   21820 MEMB 66   CHL1 H27C HAL3           0.09         1.008       0
   21821 MEMB 67   CHL1 C3   CRL1           0.14        12.011       0
   21822 MEMB 67   CHL1 H3   HGA1           0.09         1.008       0
   21823 MEMB 67   CHL1 O3   OHL           -0.66       15.9994       0
   21824 MEMB 67   CHL1 H3'  HOL            0.43         1.008       0
   21825 MEMB 67   CHL1 C4   CRL2          -0.18        12.011       0
   21826 MEMB 67   CHL1 H4A  HGA2           0.09         1.008       0
   21827 MEMB 67   CHL1 H4B  HGA2           0.09         1.008       0
   21828 MEMB 67   CHL1 C5   CEL1              0        12.011       0
   21829 MEMB 67   CHL1 C6   CEL1          -0.15        12.011       0
   21830 MEMB 67   CHL1 H6   HEL1           0.15         1.008       0
   21831 MEMB 67   CHL1 C7   CRL2          -0.18        12.011       0
   21832 MEMB 67   CHL1 H7A  HGA2           0.09         1.008       0
   21833 MEMB 67   CHL1 H7B  HGA2           0.09         1.008       0
   21834 MEMB 67   CHL1 C8   CRL1          -0.09        12.011       0
   21835 MEMB 67   CHL1 H8   HGA1           0.09         1.008       0
   21836 MEMB 67   CHL1 C14  CRL1          -0.09        12.011       0
   21837 MEMB 67   CHL1 H14  HGA1           0.09         1.008       0
   21838 MEMB 67   CHL1 C15  CRL2          -0.18        12.011       0
   21839 MEMB 67   CHL1 H15A HGA2           0.09         1.008       0
   21840 MEMB 67   CHL1 H15B HGA2           0.09         1.008       0
   21841 MEMB 67   CHL1 C16  CRL2          -0.18        12.011       0
   21842 MEMB 67   CHL1 H16A HGA2           0.09         1.008       0
   21843 MEMB 67   CHL1 H16B HGA2           0.09         1.008       0
   21844 MEMB 67   CHL1 C17  CRL1          -0.09        12.011       0
   21845 MEMB 67   CHL1 H17  HGA1           0.09         1.008       0
   21846 MEMB 67   CHL1 C13  CRL1              0        12.011       0
   21847 MEMB 67   CHL1 C18  CTL3          -0.27        12.011       0
   21848 MEMB 67   CHL1 H18A HAL3           0.09         1.008       0
   21849 MEMB 67   CHL1 H18B HAL3           0.09         1.008       0
   21850 MEMB 67   CHL1 H18C HAL3           0.09         1.008       0
   21851 MEMB 67   CHL1 C12  CRL2          -0.18        12.011       0
   21852 MEMB 67   CHL1 H12A HGA2           0.09         1.008       0
   21853 MEMB 67   CHL1 H12B HGA2           0.09         1.008       0
   21854 MEMB 67   CHL1 C11  CRL2          -0.18        12.011       0
   21855 MEMB 67   CHL1 H11A HGA2           0.09         1.008       0
   21856 MEMB 67   CHL1 H11B HGA2           0.09         1.008       0
   21857 MEMB 67   CHL1 C9   CRL1          -0.09        12.011       0
   21858 MEMB 67   CHL1 H9   HGA1           0.09         1.008       0
   21859 MEMB 67   CHL1 C10  CRL1              0        12.011       0
   21860 MEMB 67   CHL1 C19  CTL3          -0.27        12.011       0
   21861 MEMB 67   CHL1 H19A HAL3           0.09         1.008       0
   21862 MEMB 67   CHL1 H19B HAL3           0.09         1.008       0
   21863 MEMB 67   CHL1 H19C HAL3           0.09         1.008       0
   21864 MEMB 67   CHL1 C1   CRL2          -0.18        12.011       0
   21865 MEMB 67   CHL1 H1A  HGA2           0.09         1.008       0
   21866 MEMB 67   CHL1 H1B  HGA2           0.09         1.008       0
   21867 MEMB 67   CHL1 C2   CRL2          -0.18        12.011       0
   21868 MEMB 67   CHL1 H2A  HGA2           0.09         1.008       0
   21869 MEMB 67   CHL1 H2B  HGA2           0.09         1.008       0
   21870 MEMB 67   CHL1 C20  CTL1          -0.09        12.011       0
   21871 MEMB 67   CHL1 H20  HAL1           0.09         1.008       0
   21872 MEMB 67   CHL1 C21  CTL3          -0.27        12.011       0
   21873 MEMB 67   CHL1 H21A HAL3           0.09         1.008       0
   21874 MEMB 67   CHL1 H21B HAL3           0.09         1.008       0
   21875 MEMB 67   CHL1 H21C HAL3           0.09         1.008       0
   21876 MEMB 67   CHL1 C22  CTL2          -0.18        12.011       0
   21877 MEMB 67   CHL1 H22A HAL2           0.09         1.008       0
   21878 MEMB 67   CHL1 H22B HAL2           0.09         1.008       0
   21879 MEMB 67   CHL1 C23  CTL2          -0.18        12.011       0
   21880 MEMB 67   CHL1 H23A HAL2           0.09         1.008       0
   21881 MEMB 67   CHL1 H23B HAL2           0.09         1.008       0
   21882 MEMB 67   CHL1 C24  CTL2          -0.18        12.011       0
   21883 MEMB 67   CHL1 H24A HAL2           0.09         1.008       0
   21884 MEMB 67   CHL1 H24B HAL2           0.09         1.008       0
   21885 MEMB 67   CHL1 C25  CTL1          -0.09        12.011       0
   21886 MEMB 67   CHL1 H25  HAL1           0.09         1.008       0
   21887 MEMB 67   CHL1 C26  CTL3          -0.27        12.011       0
   21888 MEMB 67   CHL1 H26A HAL3           0.09         1.008       0
   21889 MEMB 67   CHL1 H26B HAL3           0.09         1.008       0
   21890 MEMB 67   CHL1 H26C HAL3           0.09         1.008       0
   21891 MEMB 67   CHL1 C27  CTL3          -0.27        12.011       0
   21892 MEMB 67   CHL1 H27A HAL3           0.09         1.008       0
   21893 MEMB 67   CHL1 H27B HAL3           0.09         1.008       0
   21894 MEMB 67   CHL1 H27C HAL3           0.09         1.008       0
   21895 MEMB 68   CHL1 C3   CRL1           0.14        12.011       0
   21896 MEMB 68   CHL1 H3   HGA1           0.09         1.008       0
   21897 MEMB 68   CHL1 O3   OHL           -0.66       15.9994       0
   21898 MEMB 68   CHL1 H3'  HOL            0.43         1.008       0
   21899 MEMB 68   CHL1 C4   CRL2          -0.18        12.011       0
   21900 MEMB 68   CHL1 H4A  HGA2           0.09         1.008       0
   21901 MEMB 68   CHL1 H4B  HGA2           0.09         1.008       0
   21902 MEMB 68   CHL1 C5   CEL1              0        12.011       0
   21903 MEMB 68   CHL1 C6   CEL1          -0.15        12.011       0
   21904 MEMB 68   CHL1 H6   HEL1           0.15         1.008       0
   21905 MEMB 68   CHL1 C7   CRL2          -0.18        12.011       0
   21906 MEMB 68   CHL1 H7A  HGA2           0.09         1.008       0
   21907 MEMB 68   CHL1 H7B  HGA2           0.09         1.008       0
   21908 MEMB 68   CHL1 C8   CRL1          -0.09        12.011       0
   21909 MEMB 68   CHL1 H8   HGA1           0.09         1.008       0
   21910 MEMB 68   CHL1 C14  CRL1          -0.09        12.011       0
   21911 MEMB 68   CHL1 H14  HGA1           0.09         1.008       0
   21912 MEMB 68   CHL1 C15  CRL2          -0.18        12.011       0
   21913 MEMB 68   CHL1 H15A HGA2           0.09         1.008       0
   21914 MEMB 68   CHL1 H15B HGA2           0.09         1.008       0
   21915 MEMB 68   CHL1 C16  CRL2          -0.18        12.011       0
   21916 MEMB 68   CHL1 H16A HGA2           0.09         1.008       0
   21917 MEMB 68   CHL1 H16B HGA2           0.09         1.008       0
   21918 MEMB 68   CHL1 C17  CRL1          -0.09        12.011       0
   21919 MEMB 68   CHL1 H17  HGA1           0.09         1.008       0
   21920 MEMB 68   CHL1 C13  CRL1              0        12.011       0
   21921 MEMB 68   CHL1 C18  CTL3          -0.27        12.011       0
   21922 MEMB 68   CHL1 H18A HAL3           0.09         1.008       0
   21923 MEMB 68   CHL1 H18B HAL3           0.09         1.008       0
   21924 MEMB 68   CHL1 H18C HAL3           0.09         1.008       0
   21925 MEMB 68   CHL1 C12  CRL2          -0.18        12.011       0
   21926 MEMB 68   CHL1 H12A HGA2           0.09         1.008       0
   21927 MEMB 68   CHL1 H12B HGA2           0.09         1.008       0
   21928 MEMB 68   CHL1 C11  CRL2          -0.18        12.011       0
   21929 MEMB 68   CHL1 H11A HGA2           0.09         1.008       0
   21930 MEMB 68   CHL1 H11B HGA2           0.09         1.008       0
   21931 MEMB 68   CHL1 C9   CRL1          -0.09        12.011       0
   21932 MEMB 68   CHL1 H9   HGA1           0.09         1.008       0
   21933 MEMB 68   CHL1 C10  CRL1              0        12.011       0
   21934 MEMB 68   CHL1 C19  CTL3          -0.27        12.011       0
   21935 MEMB 68   CHL1 H19A HAL3           0.09         1.008       0
   21936 MEMB 68   CHL1 H19B HAL3           0.09         1.008       0
   21937 MEMB 68   CHL1 H19C HAL3           0.09         1.008       0
   21938 MEMB 68   CHL1 C1   CRL2          -0.18        12.011       0
   21939 MEMB 68   CHL1 H1A  HGA2           0.09         1.008       0
   21940 MEMB 68   CHL1 H1B  HGA2           0.09         1.008       0
   21941 MEMB 68   CHL1 C2   CRL2          -0.18        12.011       0
   21942 MEMB 68   CHL1 H2A  HGA2           0.09         1.008       0
   21943 MEMB 68   CHL1 H2B  HGA2           0.09         1.008       0
   21944 MEMB 68   CHL1 C20  CTL1          -0.09        12.011       0
   21945 MEMB 68   CHL1 H20  HAL1           0.09         1.008       0
   21946 MEMB 68   CHL1 C21  CTL3          -0.27        12.011       0
   21947 MEMB 68   CHL1 H21A HAL3           0.09         1.008       0
   21948 MEMB 68   CHL1 H21B HAL3           0.09         1.008       0
   21949 MEMB 68   CHL1 H21C HAL3           0.09         1.008       0
   21950 MEMB 68   CHL1 C22  CTL2          -0.18        12.011       0
   21951 MEMB 68   CHL1 H22A HAL2           0.09         1.008       0
   21952 MEMB 68   CHL1 H22B HAL2           0.09         1.008       0
   21953 MEMB 68   CHL1 C23  CTL2          -0.18        12.011       0
   21954 MEMB 68   CHL1 H23A HAL2           0.09         1.008       0
   21955 MEMB 68   CHL1 H23B HAL2           0.09         1.008       0
   21956 MEMB 68   CHL1 C24  CTL2          -0.18        12.011       0
   21957 MEMB 68   CHL1 H24A HAL2           0.09         1.008       0
   21958 MEMB 68   CHL1 H24B HAL2           0.09         1.008       0
   21959 MEMB 68   CHL1 C25  CTL1          -0.09        12.011       0
   21960 MEMB 68   CHL1 H25  HAL1           0.09         1.008       0
   21961 MEMB 68   CHL1 C26  CTL3          -0.27        12.011       0
   21962 MEMB 68   CHL1 H26A HAL3           0.09         1.008       0
   21963 MEMB 68   CHL1 H26B HAL3           0.09         1.008       0
   21964 MEMB 68   CHL1 H26C HAL3           0.09         1.008       0
   21965 MEMB 68   CHL1 C27  CTL3          -0.27        12.011       0
   21966 MEMB 68   CHL1 H27A HAL3           0.09         1.008       0
   21967 MEMB 68   CHL1 H27B HAL3           0.09         1.008       0
   21968 MEMB 68   CHL1 H27C HAL3           0.09         1.008       0
   21969 MEMB 69   CHL1 C3   CRL1           0.14        12.011       0
   21970 MEMB 69   CHL1 H3   HGA1           0.09         1.008       0
   21971 MEMB 69   CHL1 O3   OHL           -0.66       15.9994       0
   21972 MEMB 69   CHL1 H3'  HOL            0.43         1.008       0
   21973 MEMB 69   CHL1 C4   CRL2          -0.18        12.011       0
   21974 MEMB 69   CHL1 H4A  HGA2           0.09         1.008       0
   21975 MEMB 69   CHL1 H4B  HGA2           0.09         1.008       0
   21976 MEMB 69   CHL1 C5   CEL1              0        12.011       0
   21977 MEMB 69   CHL1 C6   CEL1          -0.15        12.011       0
   21978 MEMB 69   CHL1 H6   HEL1           0.15         1.008       0
   21979 MEMB 69   CHL1 C7   CRL2          -0.18        12.011       0
   21980 MEMB 69   CHL1 H7A  HGA2           0.09         1.008       0
   21981 MEMB 69   CHL1 H7B  HGA2           0.09         1.008       0
   21982 MEMB 69   CHL1 C8   CRL1          -0.09        12.011       0
   21983 MEMB 69   CHL1 H8   HGA1           0.09         1.008       0
   21984 MEMB 69   CHL1 C14  CRL1          -0.09        12.011       0
   21985 MEMB 69   CHL1 H14  HGA1           0.09         1.008       0
   21986 MEMB 69   CHL1 C15  CRL2          -0.18        12.011       0
   21987 MEMB 69   CHL1 H15A HGA2           0.09         1.008       0
   21988 MEMB 69   CHL1 H15B HGA2           0.09         1.008       0
   21989 MEMB 69   CHL1 C16  CRL2          -0.18        12.011       0
   21990 MEMB 69   CHL1 H16A HGA2           0.09         1.008       0
   21991 MEMB 69   CHL1 H16B HGA2           0.09         1.008       0
   21992 MEMB 69   CHL1 C17  CRL1          -0.09        12.011       0
   21993 MEMB 69   CHL1 H17  HGA1           0.09         1.008       0
   21994 MEMB 69   CHL1 C13  CRL1              0        12.011       0
   21995 MEMB 69   CHL1 C18  CTL3          -0.27        12.011       0
   21996 MEMB 69   CHL1 H18A HAL3           0.09         1.008       0
   21997 MEMB 69   CHL1 H18B HAL3           0.09         1.008       0
   21998 MEMB 69   CHL1 H18C HAL3           0.09         1.008       0
   21999 MEMB 69   CHL1 C12  CRL2          -0.18        12.011       0
   22000 MEMB 69   CHL1 H12A HGA2           0.09         1.008       0
   22001 MEMB 69   CHL1 H12B HGA2           0.09         1.008       0
   22002 MEMB 69   CHL1 C11  CRL2          -0.18        12.011       0
   22003 MEMB 69   CHL1 H11A HGA2           0.09         1.008       0
   22004 MEMB 69   CHL1 H11B HGA2           0.09         1.008       0
   22005 MEMB 69   CHL1 C9   CRL1          -0.09        12.011       0
   22006 MEMB 69   CHL1 H9   HGA1           0.09         1.008       0
   22007 MEMB 69   CHL1 C10  CRL1              0        12.011       0
   22008 MEMB 69   CHL1 C19  CTL3          -0.27        12.011       0
   22009 MEMB 69   CHL1 H19A HAL3           0.09         1.008       0
   22010 MEMB 69   CHL1 H19B HAL3           0.09         1.008       0
   22011 MEMB 69   CHL1 H19C HAL3           0.09         1.008       0
   22012 MEMB 69   CHL1 C1   CRL2          -0.18        12.011       0
   22013 MEMB 69   CHL1 H1A  HGA2           0.09         1.008       0
   22014 MEMB 69   CHL1 H1B  HGA2           0.09         1.008       0
   22015 MEMB 69   CHL1 C2   CRL2          -0.18        12.011       0
   22016 MEMB 69   CHL1 H2A  HGA2           0.09         1.008       0
   22017 MEMB 69   CHL1 H2B  HGA2           0.09         1.008       0
   22018 MEMB 69   CHL1 C20  CTL1          -0.09        12.011       0
   22019 MEMB 69   CHL1 H20  HAL1           0.09         1.008       0
   22020 MEMB 69   CHL1 C21  CTL3          -0.27        12.011       0
   22021 MEMB 69   CHL1 H21A HAL3           0.09         1.008       0
   22022 MEMB 69   CHL1 H21B HAL3           0.09         1.008       0
   22023 MEMB 69   CHL1 H21C HAL3           0.09         1.008       0
   22024 MEMB 69   CHL1 C22  CTL2          -0.18        12.011       0
   22025 MEMB 69   CHL1 H22A HAL2           0.09         1.008       0
   22026 MEMB 69   CHL1 H22B HAL2           0.09         1.008       0
   22027 MEMB 69   CHL1 C23  CTL2          -0.18        12.011       0
   22028 MEMB 69   CHL1 H23A HAL2           0.09         1.008       0
   22029 MEMB 69   CHL1 H23B HAL2           0.09         1.008       0
   22030 MEMB 69   CHL1 C24  CTL2          -0.18        12.011       0
   22031 MEMB 69   CHL1 H24A HAL2           0.09         1.008       0
   22032 MEMB 69   CHL1 H24B HAL2           0.09         1.008       0
   22033 MEMB 69   CHL1 C25  CTL1          -0.09        12.011       0
   22034 MEMB 69   CHL1 H25  HAL1           0.09         1.008       0
   22035 MEMB 69   CHL1 C26  CTL3          -0.27        12.011       0
   22036 MEMB 69   CHL1 H26A HAL3           0.09         1.008       0
   22037 MEMB 69   CHL1 H26B HAL3           0.09         1.008       0
   22038 MEMB 69   CHL1 H26C HAL3           0.09         1.008       0
   22039 MEMB 69   CHL1 C27  CTL3          -0.27        12.011       0
   22040 MEMB 69   CHL1 H27A HAL3           0.09         1.008       0
   22041 MEMB 69   CHL1 H27B HAL3           0.09         1.008       0
   22042 MEMB 69   CHL1 H27C HAL3           0.09         1.008       0
   22043 MEMB 70   CHL1 C3   CRL1           0.14        12.011       0
   22044 MEMB 70   CHL1 H3   HGA1           0.09         1.008       0
   22045 MEMB 70   CHL1 O3   OHL           -0.66       15.9994       0
   22046 MEMB 70   CHL1 H3'  HOL            0.43         1.008       0
   22047 MEMB 70   CHL1 C4   CRL2          -0.18        12.011       0
   22048 MEMB 70   CHL1 H4A  HGA2           0.09         1.008       0
   22049 MEMB 70   CHL1 H4B  HGA2           0.09         1.008       0
   22050 MEMB 70   CHL1 C5   CEL1              0        12.011       0
   22051 MEMB 70   CHL1 C6   CEL1          -0.15        12.011       0
   22052 MEMB 70   CHL1 H6   HEL1           0.15         1.008       0
   22053 MEMB 70   CHL1 C7   CRL2          -0.18        12.011       0
   22054 MEMB 70   CHL1 H7A  HGA2           0.09         1.008       0
   22055 MEMB 70   CHL1 H7B  HGA2           0.09         1.008       0
   22056 MEMB 70   CHL1 C8   CRL1          -0.09        12.011       0
   22057 MEMB 70   CHL1 H8   HGA1           0.09         1.008       0
   22058 MEMB 70   CHL1 C14  CRL1          -0.09        12.011       0
   22059 MEMB 70   CHL1 H14  HGA1           0.09         1.008       0
   22060 MEMB 70   CHL1 C15  CRL2          -0.18        12.011       0
   22061 MEMB 70   CHL1 H15A HGA2           0.09         1.008       0
   22062 MEMB 70   CHL1 H15B HGA2           0.09         1.008       0
   22063 MEMB 70   CHL1 C16  CRL2          -0.18        12.011       0
   22064 MEMB 70   CHL1 H16A HGA2           0.09         1.008       0
   22065 MEMB 70   CHL1 H16B HGA2           0.09         1.008       0
   22066 MEMB 70   CHL1 C17  CRL1          -0.09        12.011       0
   22067 MEMB 70   CHL1 H17  HGA1           0.09         1.008       0
   22068 MEMB 70   CHL1 C13  CRL1              0        12.011       0
   22069 MEMB 70   CHL1 C18  CTL3          -0.27        12.011       0
   22070 MEMB 70   CHL1 H18A HAL3           0.09         1.008       0
   22071 MEMB 70   CHL1 H18B HAL3           0.09         1.008       0
   22072 MEMB 70   CHL1 H18C HAL3           0.09         1.008       0
   22073 MEMB 70   CHL1 C12  CRL2          -0.18        12.011       0
   22074 MEMB 70   CHL1 H12A HGA2           0.09         1.008       0
   22075 MEMB 70   CHL1 H12B HGA2           0.09         1.008       0
   22076 MEMB 70   CHL1 C11  CRL2          -0.18        12.011       0
   22077 MEMB 70   CHL1 H11A HGA2           0.09         1.008       0
   22078 MEMB 70   CHL1 H11B HGA2           0.09         1.008       0
   22079 MEMB 70   CHL1 C9   CRL1          -0.09        12.011       0
   22080 MEMB 70   CHL1 H9   HGA1           0.09         1.008       0
   22081 MEMB 70   CHL1 C10  CRL1              0        12.011       0
   22082 MEMB 70   CHL1 C19  CTL3          -0.27        12.011       0
   22083 MEMB 70   CHL1 H19A HAL3           0.09         1.008       0
   22084 MEMB 70   CHL1 H19B HAL3           0.09         1.008       0
   22085 MEMB 70   CHL1 H19C HAL3           0.09         1.008       0
   22086 MEMB 70   CHL1 C1   CRL2          -0.18        12.011       0
   22087 MEMB 70   CHL1 H1A  HGA2           0.09         1.008       0
   22088 MEMB 70   CHL1 H1B  HGA2           0.09         1.008       0
   22089 MEMB 70   CHL1 C2   CRL2          -0.18        12.011       0
   22090 MEMB 70   CHL1 H2A  HGA2           0.09         1.008       0
   22091 MEMB 70   CHL1 H2B  HGA2           0.09         1.008       0
   22092 MEMB 70   CHL1 C20  CTL1          -0.09        12.011       0
   22093 MEMB 70   CHL1 H20  HAL1           0.09         1.008       0
   22094 MEMB 70   CHL1 C21  CTL3          -0.27        12.011       0
   22095 MEMB 70   CHL1 H21A HAL3           0.09         1.008       0
   22096 MEMB 70   CHL1 H21B HAL3           0.09         1.008       0
   22097 MEMB 70   CHL1 H21C HAL3           0.09         1.008       0
   22098 MEMB 70   CHL1 C22  CTL2          -0.18        12.011       0
   22099 MEMB 70   CHL1 H22A HAL2           0.09         1.008       0
   22100 MEMB 70   CHL1 H22B HAL2           0.09         1.008       0
   22101 MEMB 70   CHL1 C23  CTL2          -0.18        12.011       0
   22102 MEMB 70   CHL1 H23A HAL2           0.09         1.008       0
   22103 MEMB 70   CHL1 H23B HAL2           0.09         1.008       0
   22104 MEMB 70   CHL1 C24  CTL2          -0.18        12.011       0
   22105 MEMB 70   CHL1 H24A HAL2           0.09         1.008       0
   22106 MEMB 70   CHL1 H24B HAL2           0.09         1.008       0
   22107 MEMB 70   CHL1 C25  CTL1          -0.09        12.011       0
   22108 MEMB 70   CHL1 H25  HAL1           0.09         1.008       0
   22109 MEMB 70   CHL1 C26  CTL3          -0.27        12.011       0
   22110 MEMB 70   CHL1 H26A HAL3           0.09         1.008       0
   22111 MEMB 70   CHL1 H26B HAL3           0.09         1.008       0
   22112 MEMB 70   CHL1 H26C HAL3           0.09         1.008       0
   22113 MEMB 70   CHL1 C27  CTL3          -0.27        12.011       0
   22114 MEMB 70   CHL1 H27A HAL3           0.09         1.008       0
   22115 MEMB 70   CHL1 H27B HAL3           0.09         1.008       0
   22116 MEMB 70   CHL1 H27C HAL3           0.09         1.008       0
   22117 MEMB 71   CHL1 C3   CRL1           0.14        12.011       0
   22118 MEMB 71   CHL1 H3   HGA1           0.09         1.008       0
   22119 MEMB 71   CHL1 O3   OHL           -0.66       15.9994       0
   22120 MEMB 71   CHL1 H3'  HOL            0.43         1.008       0
   22121 MEMB 71   CHL1 C4   CRL2          -0.18        12.011       0
   22122 MEMB 71   CHL1 H4A  HGA2           0.09         1.008       0
   22123 MEMB 71   CHL1 H4B  HGA2           0.09         1.008       0
   22124 MEMB 71   CHL1 C5   CEL1              0        12.011       0
   22125 MEMB 71   CHL1 C6   CEL1          -0.15        12.011       0
   22126 MEMB 71   CHL1 H6   HEL1           0.15         1.008       0
   22127 MEMB 71   CHL1 C7   CRL2          -0.18        12.011       0
   22128 MEMB 71   CHL1 H7A  HGA2           0.09         1.008       0
   22129 MEMB 71   CHL1 H7B  HGA2           0.09         1.008       0
   22130 MEMB 71   CHL1 C8   CRL1          -0.09        12.011       0
   22131 MEMB 71   CHL1 H8   HGA1           0.09         1.008       0
   22132 MEMB 71   CHL1 C14  CRL1          -0.09        12.011       0
   22133 MEMB 71   CHL1 H14  HGA1           0.09         1.008       0
   22134 MEMB 71   CHL1 C15  CRL2          -0.18        12.011       0
   22135 MEMB 71   CHL1 H15A HGA2           0.09         1.008       0
   22136 MEMB 71   CHL1 H15B HGA2           0.09         1.008       0
   22137 MEMB 71   CHL1 C16  CRL2          -0.18        12.011       0
   22138 MEMB 71   CHL1 H16A HGA2           0.09         1.008       0
   22139 MEMB 71   CHL1 H16B HGA2           0.09         1.008       0
   22140 MEMB 71   CHL1 C17  CRL1          -0.09        12.011       0
   22141 MEMB 71   CHL1 H17  HGA1           0.09         1.008       0
   22142 MEMB 71   CHL1 C13  CRL1              0        12.011       0
   22143 MEMB 71   CHL1 C18  CTL3          -0.27        12.011       0
   22144 MEMB 71   CHL1 H18A HAL3           0.09         1.008       0
   22145 MEMB 71   CHL1 H18B HAL3           0.09         1.008       0
   22146 MEMB 71   CHL1 H18C HAL3           0.09         1.008       0
   22147 MEMB 71   CHL1 C12  CRL2          -0.18        12.011       0
   22148 MEMB 71   CHL1 H12A HGA2           0.09         1.008       0
   22149 MEMB 71   CHL1 H12B HGA2           0.09         1.008       0
   22150 MEMB 71   CHL1 C11  CRL2          -0.18        12.011       0
   22151 MEMB 71   CHL1 H11A HGA2           0.09         1.008       0
   22152 MEMB 71   CHL1 H11B HGA2           0.09         1.008       0
   22153 MEMB 71   CHL1 C9   CRL1          -0.09        12.011       0
   22154 MEMB 71   CHL1 H9   HGA1           0.09         1.008       0
   22155 MEMB 71   CHL1 C10  CRL1              0        12.011       0
   22156 MEMB 71   CHL1 C19  CTL3          -0.27        12.011       0
   22157 MEMB 71   CHL1 H19A HAL3           0.09         1.008       0
   22158 MEMB 71   CHL1 H19B HAL3           0.09         1.008       0
   22159 MEMB 71   CHL1 H19C HAL3           0.09         1.008       0
   22160 MEMB 71   CHL1 C1   CRL2          -0.18        12.011       0
   22161 MEMB 71   CHL1 H1A  HGA2           0.09         1.008       0
   22162 MEMB 71   CHL1 H1B  HGA2           0.09         1.008       0
   22163 MEMB 71   CHL1 C2   CRL2          -0.18        12.011       0
   22164 MEMB 71   CHL1 H2A  HGA2           0.09         1.008       0
   22165 MEMB 71   CHL1 H2B  HGA2           0.09         1.008       0
   22166 MEMB 71   CHL1 C20  CTL1          -0.09        12.011       0
   22167 MEMB 71   CHL1 H20  HAL1           0.09         1.008       0
   22168 MEMB 71   CHL1 C21  CTL3          -0.27        12.011       0
   22169 MEMB 71   CHL1 H21A HAL3           0.09         1.008       0
   22170 MEMB 71   CHL1 H21B HAL3           0.09         1.008       0
   22171 MEMB 71   CHL1 H21C HAL3           0.09         1.008       0
   22172 MEMB 71   CHL1 C22  CTL2          -0.18        12.011       0
   22173 MEMB 71   CHL1 H22A HAL2           0.09         1.008       0
   22174 MEMB 71   CHL1 H22B HAL2           0.09         1.008       0
   22175 MEMB 71   CHL1 C23  CTL2          -0.18        12.011       0
   22176 MEMB 71   CHL1 H23A HAL2           0.09         1.008       0
   22177 MEMB 71   CHL1 H23B HAL2           0.09         1.008       0
   22178 MEMB 71   CHL1 C24  CTL2          -0.18        12.011       0
   22179 MEMB 71   CHL1 H24A HAL2           0.09         1.008       0
   22180 MEMB 71   CHL1 H24B HAL2           0.09         1.008       0
   22181 MEMB 71   CHL1 C25  CTL1          -0.09        12.011       0
   22182 MEMB 71   CHL1 H25  HAL1           0.09         1.008       0
   22183 MEMB 71   CHL1 C26  CTL3          -0.27        12.011       0
   22184 MEMB 71   CHL1 H26A HAL3           0.09         1.008       0
   22185 MEMB 71   CHL1 H26B HAL3           0.09         1.008       0
   22186 MEMB 71   CHL1 H26C HAL3           0.09         1.008       0
   22187 MEMB 71   CHL1 C27  CTL3          -0.27        12.011       0
   22188 MEMB 71   CHL1 H27A HAL3           0.09         1.008       0
   22189 MEMB 71   CHL1 H27B HAL3           0.09         1.008       0
   22190 MEMB 71   CHL1 H27C HAL3           0.09         1.008       0
   22191 MEMB 72   CHL1 C3   CRL1           0.14        12.011       0
   22192 MEMB 72   CHL1 H3   HGA1           0.09         1.008       0
   22193 MEMB 72   CHL1 O3   OHL           -0.66       15.9994       0
   22194 MEMB 72   CHL1 H3'  HOL            0.43         1.008       0
   22195 MEMB 72   CHL1 C4   CRL2          -0.18        12.011       0
   22196 MEMB 72   CHL1 H4A  HGA2           0.09         1.008       0
   22197 MEMB 72   CHL1 H4B  HGA2           0.09         1.008       0
   22198 MEMB 72   CHL1 C5   CEL1              0        12.011       0
   22199 MEMB 72   CHL1 C6   CEL1          -0.15        12.011       0
   22200 MEMB 72   CHL1 H6   HEL1           0.15         1.008       0
   22201 MEMB 72   CHL1 C7   CRL2          -0.18        12.011       0
   22202 MEMB 72   CHL1 H7A  HGA2           0.09         1.008       0
   22203 MEMB 72   CHL1 H7B  HGA2           0.09         1.008       0
   22204 MEMB 72   CHL1 C8   CRL1          -0.09        12.011       0
   22205 MEMB 72   CHL1 H8   HGA1           0.09         1.008       0
   22206 MEMB 72   CHL1 C14  CRL1          -0.09        12.011       0
   22207 MEMB 72   CHL1 H14  HGA1           0.09         1.008       0
   22208 MEMB 72   CHL1 C15  CRL2          -0.18        12.011       0
   22209 MEMB 72   CHL1 H15A HGA2           0.09         1.008       0
   22210 MEMB 72   CHL1 H15B HGA2           0.09         1.008       0
   22211 MEMB 72   CHL1 C16  CRL2          -0.18        12.011       0
   22212 MEMB 72   CHL1 H16A HGA2           0.09         1.008       0
   22213 MEMB 72   CHL1 H16B HGA2           0.09         1.008       0
   22214 MEMB 72   CHL1 C17  CRL1          -0.09        12.011       0
   22215 MEMB 72   CHL1 H17  HGA1           0.09         1.008       0
   22216 MEMB 72   CHL1 C13  CRL1              0        12.011       0
   22217 MEMB 72   CHL1 C18  CTL3          -0.27        12.011       0
   22218 MEMB 72   CHL1 H18A HAL3           0.09         1.008       0
   22219 MEMB 72   CHL1 H18B HAL3           0.09         1.008       0
   22220 MEMB 72   CHL1 H18C HAL3           0.09         1.008       0
   22221 MEMB 72   CHL1 C12  CRL2          -0.18        12.011       0
   22222 MEMB 72   CHL1 H12A HGA2           0.09         1.008       0
   22223 MEMB 72   CHL1 H12B HGA2           0.09         1.008       0
   22224 MEMB 72   CHL1 C11  CRL2          -0.18        12.011       0
   22225 MEMB 72   CHL1 H11A HGA2           0.09         1.008       0
   22226 MEMB 72   CHL1 H11B HGA2           0.09         1.008       0
   22227 MEMB 72   CHL1 C9   CRL1          -0.09        12.011       0
   22228 MEMB 72   CHL1 H9   HGA1           0.09         1.008       0
   22229 MEMB 72   CHL1 C10  CRL1              0        12.011       0
   22230 MEMB 72   CHL1 C19  CTL3          -0.27        12.011       0
   22231 MEMB 72   CHL1 H19A HAL3           0.09         1.008       0
   22232 MEMB 72   CHL1 H19B HAL3           0.09         1.008       0
   22233 MEMB 72   CHL1 H19C HAL3           0.09         1.008       0
   22234 MEMB 72   CHL1 C1   CRL2          -0.18        12.011       0
   22235 MEMB 72   CHL1 H1A  HGA2           0.09         1.008       0
   22236 MEMB 72   CHL1 H1B  HGA2           0.09         1.008       0
   22237 MEMB 72   CHL1 C2   CRL2          -0.18        12.011       0
   22238 MEMB 72   CHL1 H2A  HGA2           0.09         1.008       0
   22239 MEMB 72   CHL1 H2B  HGA2           0.09         1.008       0
   22240 MEMB 72   CHL1 C20  CTL1          -0.09        12.011       0
   22241 MEMB 72   CHL1 H20  HAL1           0.09         1.008       0
   22242 MEMB 72   CHL1 C21  CTL3          -0.27        12.011       0
   22243 MEMB 72   CHL1 H21A HAL3           0.09         1.008       0
   22244 MEMB 72   CHL1 H21B HAL3           0.09         1.008       0
   22245 MEMB 72   CHL1 H21C HAL3           0.09         1.008       0
   22246 MEMB 72   CHL1 C22  CTL2          -0.18        12.011       0
   22247 MEMB 72   CHL1 H22A HAL2           0.09         1.008       0
   22248 MEMB 72   CHL1 H22B HAL2           0.09         1.008       0
   22249 MEMB 72   CHL1 C23  CTL2          -0.18        12.011       0
   22250 MEMB 72   CHL1 H23A HAL2           0.09         1.008       0
   22251 MEMB 72   CHL1 H23B HAL2           0.09         1.008       0
   22252 MEMB 72   CHL1 C24  CTL2          -0.18        12.011       0
   22253 MEMB 72   CHL1 H24A HAL2           0.09         1.008       0
   22254 MEMB 72   CHL1 H24B HAL2           0.09         1.008       0
   22255 MEMB 72   CHL1 C25  CTL1          -0.09        12.011       0
   22256 MEMB 72   CHL1 H25  HAL1           0.09         1.008       0
   22257 MEMB 72   CHL1 C26  CTL3          -0.27        12.011       0
   22258 MEMB 72   CHL1 H26A HAL3           0.09         1.008       0
   22259 MEMB 72   CHL1 H26B HAL3           0.09         1.008       0
   22260 MEMB 72   CHL1 H26C HAL3           0.09         1.008       0
   22261 MEMB 72   CHL1 C27  CTL3          -0.27        12.011       0
   22262 MEMB 72   CHL1 H27A HAL3           0.09         1.008       0
   22263 MEMB 72   CHL1 H27B HAL3           0.09         1.008       0
   22264 MEMB 72   CHL1 H27C HAL3           0.09         1.008       0
   22265 MEMB 73   CHL1 C3   CRL1           0.14        12.011       0
   22266 MEMB 73   CHL1 H3   HGA1           0.09         1.008       0
   22267 MEMB 73   CHL1 O3   OHL           -0.66       15.9994       0
   22268 MEMB 73   CHL1 H3'  HOL            0.43         1.008       0
   22269 MEMB 73   CHL1 C4   CRL2          -0.18        12.011       0
   22270 MEMB 73   CHL1 H4A  HGA2           0.09         1.008       0
   22271 MEMB 73   CHL1 H4B  HGA2           0.09         1.008       0
   22272 MEMB 73   CHL1 C5   CEL1              0        12.011       0
   22273 MEMB 73   CHL1 C6   CEL1          -0.15        12.011       0
   22274 MEMB 73   CHL1 H6   HEL1           0.15         1.008       0
   22275 MEMB 73   CHL1 C7   CRL2          -0.18        12.011       0
   22276 MEMB 73   CHL1 H7A  HGA2           0.09         1.008       0
   22277 MEMB 73   CHL1 H7B  HGA2           0.09         1.008       0
   22278 MEMB 73   CHL1 C8   CRL1          -0.09        12.011       0
   22279 MEMB 73   CHL1 H8   HGA1           0.09         1.008       0
   22280 MEMB 73   CHL1 C14  CRL1          -0.09        12.011       0
   22281 MEMB 73   CHL1 H14  HGA1           0.09         1.008       0
   22282 MEMB 73   CHL1 C15  CRL2          -0.18        12.011       0
   22283 MEMB 73   CHL1 H15A HGA2           0.09         1.008       0
   22284 MEMB 73   CHL1 H15B HGA2           0.09         1.008       0
   22285 MEMB 73   CHL1 C16  CRL2          -0.18        12.011       0
   22286 MEMB 73   CHL1 H16A HGA2           0.09         1.008       0
   22287 MEMB 73   CHL1 H16B HGA2           0.09         1.008       0
   22288 MEMB 73   CHL1 C17  CRL1          -0.09        12.011       0
   22289 MEMB 73   CHL1 H17  HGA1           0.09         1.008       0
   22290 MEMB 73   CHL1 C13  CRL1              0        12.011       0
   22291 MEMB 73   CHL1 C18  CTL3          -0.27        12.011       0
   22292 MEMB 73   CHL1 H18A HAL3           0.09         1.008       0
   22293 MEMB 73   CHL1 H18B HAL3           0.09         1.008       0
   22294 MEMB 73   CHL1 H18C HAL3           0.09         1.008       0
   22295 MEMB 73   CHL1 C12  CRL2          -0.18        12.011       0
   22296 MEMB 73   CHL1 H12A HGA2           0.09         1.008       0
   22297 MEMB 73   CHL1 H12B HGA2           0.09         1.008       0
   22298 MEMB 73   CHL1 C11  CRL2          -0.18        12.011       0
   22299 MEMB 73   CHL1 H11A HGA2           0.09         1.008       0
   22300 MEMB 73   CHL1 H11B HGA2           0.09         1.008       0
   22301 MEMB 73   CHL1 C9   CRL1          -0.09        12.011       0
   22302 MEMB 73   CHL1 H9   HGA1           0.09         1.008       0
   22303 MEMB 73   CHL1 C10  CRL1              0        12.011       0
   22304 MEMB 73   CHL1 C19  CTL3          -0.27        12.011       0
   22305 MEMB 73   CHL1 H19A HAL3           0.09         1.008       0
   22306 MEMB 73   CHL1 H19B HAL3           0.09         1.008       0
   22307 MEMB 73   CHL1 H19C HAL3           0.09         1.008       0
   22308 MEMB 73   CHL1 C1   CRL2          -0.18        12.011       0
   22309 MEMB 73   CHL1 H1A  HGA2           0.09         1.008       0
   22310 MEMB 73   CHL1 H1B  HGA2           0.09         1.008       0
   22311 MEMB 73   CHL1 C2   CRL2          -0.18        12.011       0
   22312 MEMB 73   CHL1 H2A  HGA2           0.09         1.008       0
   22313 MEMB 73   CHL1 H2B  HGA2           0.09         1.008       0
   22314 MEMB 73   CHL1 C20  CTL1          -0.09        12.011       0
   22315 MEMB 73   CHL1 H20  HAL1           0.09         1.008       0
   22316 MEMB 73   CHL1 C21  CTL3          -0.27        12.011       0
   22317 MEMB 73   CHL1 H21A HAL3           0.09         1.008       0
   22318 MEMB 73   CHL1 H21B HAL3           0.09         1.008       0
   22319 MEMB 73   CHL1 H21C HAL3           0.09         1.008       0
   22320 MEMB 73   CHL1 C22  CTL2          -0.18        12.011       0
   22321 MEMB 73   CHL1 H22A HAL2           0.09         1.008       0
   22322 MEMB 73   CHL1 H22B HAL2           0.09         1.008       0
   22323 MEMB 73   CHL1 C23  CTL2          -0.18        12.011       0
   22324 MEMB 73   CHL1 H23A HAL2           0.09         1.008       0
   22325 MEMB 73   CHL1 H23B HAL2           0.09         1.008       0
   22326 MEMB 73   CHL1 C24  CTL2          -0.18        12.011       0
   22327 MEMB 73   CHL1 H24A HAL2           0.09         1.008       0
   22328 MEMB 73   CHL1 H24B HAL2           0.09         1.008       0
   22329 MEMB 73   CHL1 C25  CTL1          -0.09        12.011       0
   22330 MEMB 73   CHL1 H25  HAL1           0.09         1.008       0
   22331 MEMB 73   CHL1 C26  CTL3          -0.27        12.011       0
   22332 MEMB 73   CHL1 H26A HAL3           0.09         1.008       0
   22333 MEMB 73   CHL1 H26B HAL3           0.09         1.008       0
   22334 MEMB 73   CHL1 H26C HAL3           0.09         1.008       0
   22335 MEMB 73   CHL1 C27  CTL3          -0.27        12.011       0
   22336 MEMB 73   CHL1 H27A HAL3           0.09         1.008       0
   22337 MEMB 73   CHL1 H27B HAL3           0.09         1.008       0
   22338 MEMB 73   CHL1 H27C HAL3           0.09         1.008       0
   22339 MEMB 74   CHL1 C3   CRL1           0.14        12.011       0
   22340 MEMB 74   CHL1 H3   HGA1           0.09         1.008       0
   22341 MEMB 74   CHL1 O3   OHL           -0.66       15.9994       0
   22342 MEMB 74   CHL1 H3'  HOL            0.43         1.008       0
   22343 MEMB 74   CHL1 C4   CRL2          -0.18        12.011       0
   22344 MEMB 74   CHL1 H4A  HGA2           0.09         1.008       0
   22345 MEMB 74   CHL1 H4B  HGA2           0.09         1.008       0
   22346 MEMB 74   CHL1 C5   CEL1              0        12.011       0
   22347 MEMB 74   CHL1 C6   CEL1          -0.15        12.011       0
   22348 MEMB 74   CHL1 H6   HEL1           0.15         1.008       0
   22349 MEMB 74   CHL1 C7   CRL2          -0.18        12.011       0
   22350 MEMB 74   CHL1 H7A  HGA2           0.09         1.008       0
   22351 MEMB 74   CHL1 H7B  HGA2           0.09         1.008       0
   22352 MEMB 74   CHL1 C8   CRL1          -0.09        12.011       0
   22353 MEMB 74   CHL1 H8   HGA1           0.09         1.008       0
   22354 MEMB 74   CHL1 C14  CRL1          -0.09        12.011       0
   22355 MEMB 74   CHL1 H14  HGA1           0.09         1.008       0
   22356 MEMB 74   CHL1 C15  CRL2          -0.18        12.011       0
   22357 MEMB 74   CHL1 H15A HGA2           0.09         1.008       0
   22358 MEMB 74   CHL1 H15B HGA2           0.09         1.008       0
   22359 MEMB 74   CHL1 C16  CRL2          -0.18        12.011       0
   22360 MEMB 74   CHL1 H16A HGA2           0.09         1.008       0
   22361 MEMB 74   CHL1 H16B HGA2           0.09         1.008       0
   22362 MEMB 74   CHL1 C17  CRL1          -0.09        12.011       0
   22363 MEMB 74   CHL1 H17  HGA1           0.09         1.008       0
   22364 MEMB 74   CHL1 C13  CRL1              0        12.011       0
   22365 MEMB 74   CHL1 C18  CTL3          -0.27        12.011       0
   22366 MEMB 74   CHL1 H18A HAL3           0.09         1.008       0
   22367 MEMB 74   CHL1 H18B HAL3           0.09         1.008       0
   22368 MEMB 74   CHL1 H18C HAL3           0.09         1.008       0
   22369 MEMB 74   CHL1 C12  CRL2          -0.18        12.011       0
   22370 MEMB 74   CHL1 H12A HGA2           0.09         1.008       0
   22371 MEMB 74   CHL1 H12B HGA2           0.09         1.008       0
   22372 MEMB 74   CHL1 C11  CRL2          -0.18        12.011       0
   22373 MEMB 74   CHL1 H11A HGA2           0.09         1.008       0
   22374 MEMB 74   CHL1 H11B HGA2           0.09         1.008       0
   22375 MEMB 74   CHL1 C9   CRL1          -0.09        12.011       0
   22376 MEMB 74   CHL1 H9   HGA1           0.09         1.008       0
   22377 MEMB 74   CHL1 C10  CRL1              0        12.011       0
   22378 MEMB 74   CHL1 C19  CTL3          -0.27        12.011       0
   22379 MEMB 74   CHL1 H19A HAL3           0.09         1.008       0
   22380 MEMB 74   CHL1 H19B HAL3           0.09         1.008       0
   22381 MEMB 74   CHL1 H19C HAL3           0.09         1.008       0
   22382 MEMB 74   CHL1 C1   CRL2          -0.18        12.011       0
   22383 MEMB 74   CHL1 H1A  HGA2           0.09         1.008       0
   22384 MEMB 74   CHL1 H1B  HGA2           0.09         1.008       0
   22385 MEMB 74   CHL1 C2   CRL2          -0.18        12.011       0
   22386 MEMB 74   CHL1 H2A  HGA2           0.09         1.008       0
   22387 MEMB 74   CHL1 H2B  HGA2           0.09         1.008       0
   22388 MEMB 74   CHL1 C20  CTL1          -0.09        12.011       0
   22389 MEMB 74   CHL1 H20  HAL1           0.09         1.008       0
   22390 MEMB 74   CHL1 C21  CTL3          -0.27        12.011       0
   22391 MEMB 74   CHL1 H21A HAL3           0.09         1.008       0
   22392 MEMB 74   CHL1 H21B HAL3           0.09         1.008       0
   22393 MEMB 74   CHL1 H21C HAL3           0.09         1.008       0
   22394 MEMB 74   CHL1 C22  CTL2          -0.18        12.011       0
   22395 MEMB 74   CHL1 H22A HAL2           0.09         1.008       0
   22396 MEMB 74   CHL1 H22B HAL2           0.09         1.008       0
   22397 MEMB 74   CHL1 C23  CTL2          -0.18        12.011       0
   22398 MEMB 74   CHL1 H23A HAL2           0.09         1.008       0
   22399 MEMB 74   CHL1 H23B HAL2           0.09         1.008       0
   22400 MEMB 74   CHL1 C24  CTL2          -0.18        12.011       0
   22401 MEMB 74   CHL1 H24A HAL2           0.09         1.008       0
   22402 MEMB 74   CHL1 H24B HAL2           0.09         1.008       0
   22403 MEMB 74   CHL1 C25  CTL1          -0.09        12.011       0
   22404 MEMB 74   CHL1 H25  HAL1           0.09         1.008       0
   22405 MEMB 74   CHL1 C26  CTL3          -0.27        12.011       0
   22406 MEMB 74   CHL1 H26A HAL3           0.09         1.008       0
   22407 MEMB 74   CHL1 H26B HAL3           0.09         1.008       0
   22408 MEMB 74   CHL1 H26C HAL3           0.09         1.008       0
   22409 MEMB 74   CHL1 C27  CTL3          -0.27        12.011       0
   22410 MEMB 74   CHL1 H27A HAL3           0.09         1.008       0
   22411 MEMB 74   CHL1 H27B HAL3           0.09         1.008       0
   22412 MEMB 74   CHL1 H27C HAL3           0.09         1.008       0
   22413 MEMB 75   CHL1 C3   CRL1           0.14        12.011       0
   22414 MEMB 75   CHL1 H3   HGA1           0.09         1.008       0
   22415 MEMB 75   CHL1 O3   OHL           -0.66       15.9994       0
   22416 MEMB 75   CHL1 H3'  HOL            0.43         1.008       0
   22417 MEMB 75   CHL1 C4   CRL2          -0.18        12.011       0
   22418 MEMB 75   CHL1 H4A  HGA2           0.09         1.008       0
   22419 MEMB 75   CHL1 H4B  HGA2           0.09         1.008       0
   22420 MEMB 75   CHL1 C5   CEL1              0        12.011       0
   22421 MEMB 75   CHL1 C6   CEL1          -0.15        12.011       0
   22422 MEMB 75   CHL1 H6   HEL1           0.15         1.008       0
   22423 MEMB 75   CHL1 C7   CRL2          -0.18        12.011       0
   22424 MEMB 75   CHL1 H7A  HGA2           0.09         1.008       0
   22425 MEMB 75   CHL1 H7B  HGA2           0.09         1.008       0
   22426 MEMB 75   CHL1 C8   CRL1          -0.09        12.011       0
   22427 MEMB 75   CHL1 H8   HGA1           0.09         1.008       0
   22428 MEMB 75   CHL1 C14  CRL1          -0.09        12.011       0
   22429 MEMB 75   CHL1 H14  HGA1           0.09         1.008       0
   22430 MEMB 75   CHL1 C15  CRL2          -0.18        12.011       0
   22431 MEMB 75   CHL1 H15A HGA2           0.09         1.008       0
   22432 MEMB 75   CHL1 H15B HGA2           0.09         1.008       0
   22433 MEMB 75   CHL1 C16  CRL2          -0.18        12.011       0
   22434 MEMB 75   CHL1 H16A HGA2           0.09         1.008       0
   22435 MEMB 75   CHL1 H16B HGA2           0.09         1.008       0
   22436 MEMB 75   CHL1 C17  CRL1          -0.09        12.011       0
   22437 MEMB 75   CHL1 H17  HGA1           0.09         1.008       0
   22438 MEMB 75   CHL1 C13  CRL1              0        12.011       0
   22439 MEMB 75   CHL1 C18  CTL3          -0.27        12.011       0
   22440 MEMB 75   CHL1 H18A HAL3           0.09         1.008       0
   22441 MEMB 75   CHL1 H18B HAL3           0.09         1.008       0
   22442 MEMB 75   CHL1 H18C HAL3           0.09         1.008       0
   22443 MEMB 75   CHL1 C12  CRL2          -0.18        12.011       0
   22444 MEMB 75   CHL1 H12A HGA2           0.09         1.008       0
   22445 MEMB 75   CHL1 H12B HGA2           0.09         1.008       0
   22446 MEMB 75   CHL1 C11  CRL2          -0.18        12.011       0
   22447 MEMB 75   CHL1 H11A HGA2           0.09         1.008       0
   22448 MEMB 75   CHL1 H11B HGA2           0.09         1.008       0
   22449 MEMB 75   CHL1 C9   CRL1          -0.09        12.011       0
   22450 MEMB 75   CHL1 H9   HGA1           0.09         1.008       0
   22451 MEMB 75   CHL1 C10  CRL1              0        12.011       0
   22452 MEMB 75   CHL1 C19  CTL3          -0.27        12.011       0
   22453 MEMB 75   CHL1 H19A HAL3           0.09         1.008       0
   22454 MEMB 75   CHL1 H19B HAL3           0.09         1.008       0
   22455 MEMB 75   CHL1 H19C HAL3           0.09         1.008       0
   22456 MEMB 75   CHL1 C1   CRL2          -0.18        12.011       0
   22457 MEMB 75   CHL1 H1A  HGA2           0.09         1.008       0
   22458 MEMB 75   CHL1 H1B  HGA2           0.09         1.008       0
   22459 MEMB 75   CHL1 C2   CRL2          -0.18        12.011       0
   22460 MEMB 75   CHL1 H2A  HGA2           0.09         1.008       0
   22461 MEMB 75   CHL1 H2B  HGA2           0.09         1.008       0
   22462 MEMB 75   CHL1 C20  CTL1          -0.09        12.011       0
   22463 MEMB 75   CHL1 H20  HAL1           0.09         1.008       0
   22464 MEMB 75   CHL1 C21  CTL3          -0.27        12.011       0
   22465 MEMB 75   CHL1 H21A HAL3           0.09         1.008       0
   22466 MEMB 75   CHL1 H21B HAL3           0.09         1.008       0
   22467 MEMB 75   CHL1 H21C HAL3           0.09         1.008       0
   22468 MEMB 75   CHL1 C22  CTL2          -0.18        12.011       0
   22469 MEMB 75   CHL1 H22A HAL2           0.09         1.008       0
   22470 MEMB 75   CHL1 H22B HAL2           0.09         1.008       0
   22471 MEMB 75   CHL1 C23  CTL2          -0.18        12.011       0
   22472 MEMB 75   CHL1 H23A HAL2           0.09         1.008       0
   22473 MEMB 75   CHL1 H23B HAL2           0.09         1.008       0
   22474 MEMB 75   CHL1 C24  CTL2          -0.18        12.011       0
   22475 MEMB 75   CHL1 H24A HAL2           0.09         1.008       0
   22476 MEMB 75   CHL1 H24B HAL2           0.09         1.008       0
   22477 MEMB 75   CHL1 C25  CTL1          -0.09        12.011       0
   22478 MEMB 75   CHL1 H25  HAL1           0.09         1.008       0
   22479 MEMB 75   CHL1 C26  CTL3          -0.27        12.011       0
   22480 MEMB 75   CHL1 H26A HAL3           0.09         1.008       0
   22481 MEMB 75   CHL1 H26B HAL3           0.09         1.008       0
   22482 MEMB 75   CHL1 H26C HAL3           0.09         1.008       0
   22483 MEMB 75   CHL1 C27  CTL3          -0.27        12.011       0
   22484 MEMB 75   CHL1 H27A HAL3           0.09         1.008       0
   22485 MEMB 75   CHL1 H27B HAL3           0.09         1.008       0
   22486 MEMB 75   CHL1 H27C HAL3           0.09         1.008       0
   22487 MEMB 76   CHL1 C3   CRL1           0.14        12.011       0
   22488 MEMB 76   CHL1 H3   HGA1           0.09         1.008       0
   22489 MEMB 76   CHL1 O3   OHL           -0.66       15.9994       0
   22490 MEMB 76   CHL1 H3'  HOL            0.43         1.008       0
   22491 MEMB 76   CHL1 C4   CRL2          -0.18        12.011       0
   22492 MEMB 76   CHL1 H4A  HGA2           0.09         1.008       0
   22493 MEMB 76   CHL1 H4B  HGA2           0.09         1.008       0
   22494 MEMB 76   CHL1 C5   CEL1              0        12.011       0
   22495 MEMB 76   CHL1 C6   CEL1          -0.15        12.011       0
   22496 MEMB 76   CHL1 H6   HEL1           0.15         1.008       0
   22497 MEMB 76   CHL1 C7   CRL2          -0.18        12.011       0
   22498 MEMB 76   CHL1 H7A  HGA2           0.09         1.008       0
   22499 MEMB 76   CHL1 H7B  HGA2           0.09         1.008       0
   22500 MEMB 76   CHL1 C8   CRL1          -0.09        12.011       0
   22501 MEMB 76   CHL1 H8   HGA1           0.09         1.008       0
   22502 MEMB 76   CHL1 C14  CRL1          -0.09        12.011       0
   22503 MEMB 76   CHL1 H14  HGA1           0.09         1.008       0
   22504 MEMB 76   CHL1 C15  CRL2          -0.18        12.011       0
   22505 MEMB 76   CHL1 H15A HGA2           0.09         1.008       0
   22506 MEMB 76   CHL1 H15B HGA2           0.09         1.008       0
   22507 MEMB 76   CHL1 C16  CRL2          -0.18        12.011       0
   22508 MEMB 76   CHL1 H16A HGA2           0.09         1.008       0
   22509 MEMB 76   CHL1 H16B HGA2           0.09         1.008       0
   22510 MEMB 76   CHL1 C17  CRL1          -0.09        12.011       0
   22511 MEMB 76   CHL1 H17  HGA1           0.09         1.008       0
   22512 MEMB 76   CHL1 C13  CRL1              0        12.011       0
   22513 MEMB 76   CHL1 C18  CTL3          -0.27        12.011       0
   22514 MEMB 76   CHL1 H18A HAL3           0.09         1.008       0
   22515 MEMB 76   CHL1 H18B HAL3           0.09         1.008       0
   22516 MEMB 76   CHL1 H18C HAL3           0.09         1.008       0
   22517 MEMB 76   CHL1 C12  CRL2          -0.18        12.011       0
   22518 MEMB 76   CHL1 H12A HGA2           0.09         1.008       0
   22519 MEMB 76   CHL1 H12B HGA2           0.09         1.008       0
   22520 MEMB 76   CHL1 C11  CRL2          -0.18        12.011       0
   22521 MEMB 76   CHL1 H11A HGA2           0.09         1.008       0
   22522 MEMB 76   CHL1 H11B HGA2           0.09         1.008       0
   22523 MEMB 76   CHL1 C9   CRL1          -0.09        12.011       0
   22524 MEMB 76   CHL1 H9   HGA1           0.09         1.008       0
   22525 MEMB 76   CHL1 C10  CRL1              0        12.011       0
   22526 MEMB 76   CHL1 C19  CTL3          -0.27        12.011       0
   22527 MEMB 76   CHL1 H19A HAL3           0.09         1.008       0
   22528 MEMB 76   CHL1 H19B HAL3           0.09         1.008       0
   22529 MEMB 76   CHL1 H19C HAL3           0.09         1.008       0
   22530 MEMB 76   CHL1 C1   CRL2          -0.18        12.011       0
   22531 MEMB 76   CHL1 H1A  HGA2           0.09         1.008       0
   22532 MEMB 76   CHL1 H1B  HGA2           0.09         1.008       0
   22533 MEMB 76   CHL1 C2   CRL2          -0.18        12.011       0
   22534 MEMB 76   CHL1 H2A  HGA2           0.09         1.008       0
   22535 MEMB 76   CHL1 H2B  HGA2           0.09         1.008       0
   22536 MEMB 76   CHL1 C20  CTL1          -0.09        12.011       0
   22537 MEMB 76   CHL1 H20  HAL1           0.09         1.008       0
   22538 MEMB 76   CHL1 C21  CTL3          -0.27        12.011       0
   22539 MEMB 76   CHL1 H21A HAL3           0.09         1.008       0
   22540 MEMB 76   CHL1 H21B HAL3           0.09         1.008       0
   22541 MEMB 76   CHL1 H21C HAL3           0.09         1.008       0
   22542 MEMB 76   CHL1 C22  CTL2          -0.18        12.011       0
   22543 MEMB 76   CHL1 H22A HAL2           0.09         1.008       0
   22544 MEMB 76   CHL1 H22B HAL2           0.09         1.008       0
   22545 MEMB 76   CHL1 C23  CTL2          -0.18        12.011       0
   22546 MEMB 76   CHL1 H23A HAL2           0.09         1.008       0
   22547 MEMB 76   CHL1 H23B HAL2           0.09         1.008       0
   22548 MEMB 76   CHL1 C24  CTL2          -0.18        12.011       0
   22549 MEMB 76   CHL1 H24A HAL2           0.09         1.008       0
   22550 MEMB 76   CHL1 H24B HAL2           0.09         1.008       0
   22551 MEMB 76   CHL1 C25  CTL1          -0.09        12.011       0
   22552 MEMB 76   CHL1 H25  HAL1           0.09         1.008       0
   22553 MEMB 76   CHL1 C26  CTL3          -0.27        12.011       0
   22554 MEMB 76   CHL1 H26A HAL3           0.09         1.008       0
   22555 MEMB 76   CHL1 H26B HAL3           0.09         1.008       0
   22556 MEMB 76   CHL1 H26C HAL3           0.09         1.008       0
   22557 MEMB 76   CHL1 C27  CTL3          -0.27        12.011       0
   22558 MEMB 76   CHL1 H27A HAL3           0.09         1.008       0
   22559 MEMB 76   CHL1 H27B HAL3           0.09         1.008       0
   22560 MEMB 76   CHL1 H27C HAL3           0.09         1.008       0
   22561 MEMB 77   CHL1 C3   CRL1           0.14        12.011       0
   22562 MEMB 77   CHL1 H3   HGA1           0.09         1.008       0
   22563 MEMB 77   CHL1 O3   OHL           -0.66       15.9994       0
   22564 MEMB 77   CHL1 H3'  HOL            0.43         1.008       0
   22565 MEMB 77   CHL1 C4   CRL2          -0.18        12.011       0
   22566 MEMB 77   CHL1 H4A  HGA2           0.09         1.008       0
   22567 MEMB 77   CHL1 H4B  HGA2           0.09         1.008       0
   22568 MEMB 77   CHL1 C5   CEL1              0        12.011       0
   22569 MEMB 77   CHL1 C6   CEL1          -0.15        12.011       0
   22570 MEMB 77   CHL1 H6   HEL1           0.15         1.008       0
   22571 MEMB 77   CHL1 C7   CRL2          -0.18        12.011       0
   22572 MEMB 77   CHL1 H7A  HGA2           0.09         1.008       0
   22573 MEMB 77   CHL1 H7B  HGA2           0.09         1.008       0
   22574 MEMB 77   CHL1 C8   CRL1          -0.09        12.011       0
   22575 MEMB 77   CHL1 H8   HGA1           0.09         1.008       0
   22576 MEMB 77   CHL1 C14  CRL1          -0.09        12.011       0
   22577 MEMB 77   CHL1 H14  HGA1           0.09         1.008       0
   22578 MEMB 77   CHL1 C15  CRL2          -0.18        12.011       0
   22579 MEMB 77   CHL1 H15A HGA2           0.09         1.008       0
   22580 MEMB 77   CHL1 H15B HGA2           0.09         1.008       0
   22581 MEMB 77   CHL1 C16  CRL2          -0.18        12.011       0
   22582 MEMB 77   CHL1 H16A HGA2           0.09         1.008       0
   22583 MEMB 77   CHL1 H16B HGA2           0.09         1.008       0
   22584 MEMB 77   CHL1 C17  CRL1          -0.09        12.011       0
   22585 MEMB 77   CHL1 H17  HGA1           0.09         1.008       0
   22586 MEMB 77   CHL1 C13  CRL1              0        12.011       0
   22587 MEMB 77   CHL1 C18  CTL3          -0.27        12.011       0
   22588 MEMB 77   CHL1 H18A HAL3           0.09         1.008       0
   22589 MEMB 77   CHL1 H18B HAL3           0.09         1.008       0
   22590 MEMB 77   CHL1 H18C HAL3           0.09         1.008       0
   22591 MEMB 77   CHL1 C12  CRL2          -0.18        12.011       0
   22592 MEMB 77   CHL1 H12A HGA2           0.09         1.008       0
   22593 MEMB 77   CHL1 H12B HGA2           0.09         1.008       0
   22594 MEMB 77   CHL1 C11  CRL2          -0.18        12.011       0
   22595 MEMB 77   CHL1 H11A HGA2           0.09         1.008       0
   22596 MEMB 77   CHL1 H11B HGA2           0.09         1.008       0
   22597 MEMB 77   CHL1 C9   CRL1          -0.09        12.011       0
   22598 MEMB 77   CHL1 H9   HGA1           0.09         1.008       0
   22599 MEMB 77   CHL1 C10  CRL1              0        12.011       0
   22600 MEMB 77   CHL1 C19  CTL3          -0.27        12.011       0
   22601 MEMB 77   CHL1 H19A HAL3           0.09         1.008       0
   22602 MEMB 77   CHL1 H19B HAL3           0.09         1.008       0
   22603 MEMB 77   CHL1 H19C HAL3           0.09         1.008       0
   22604 MEMB 77   CHL1 C1   CRL2          -0.18        12.011       0
   22605 MEMB 77   CHL1 H1A  HGA2           0.09         1.008       0
   22606 MEMB 77   CHL1 H1B  HGA2           0.09         1.008       0
   22607 MEMB 77   CHL1 C2   CRL2          -0.18        12.011       0
   22608 MEMB 77   CHL1 H2A  HGA2           0.09         1.008       0
   22609 MEMB 77   CHL1 H2B  HGA2           0.09         1.008       0
   22610 MEMB 77   CHL1 C20  CTL1          -0.09        12.011       0
   22611 MEMB 77   CHL1 H20  HAL1           0.09         1.008       0
   22612 MEMB 77   CHL1 C21  CTL3          -0.27        12.011       0
   22613 MEMB 77   CHL1 H21A HAL3           0.09         1.008       0
   22614 MEMB 77   CHL1 H21B HAL3           0.09         1.008       0
   22615 MEMB 77   CHL1 H21C HAL3           0.09         1.008       0
   22616 MEMB 77   CHL1 C22  CTL2          -0.18        12.011       0
   22617 MEMB 77   CHL1 H22A HAL2           0.09         1.008       0
   22618 MEMB 77   CHL1 H22B HAL2           0.09         1.008       0
   22619 MEMB 77   CHL1 C23  CTL2          -0.18        12.011       0
   22620 MEMB 77   CHL1 H23A HAL2           0.09         1.008       0
   22621 MEMB 77   CHL1 H23B HAL2           0.09         1.008       0
   22622 MEMB 77   CHL1 C24  CTL2          -0.18        12.011       0
   22623 MEMB 77   CHL1 H24A HAL2           0.09         1.008       0
   22624 MEMB 77   CHL1 H24B HAL2           0.09         1.008       0
   22625 MEMB 77   CHL1 C25  CTL1          -0.09        12.011       0
   22626 MEMB 77   CHL1 H25  HAL1           0.09         1.008       0
   22627 MEMB 77   CHL1 C26  CTL3          -0.27        12.011       0
   22628 MEMB 77   CHL1 H26A HAL3           0.09         1.008       0
   22629 MEMB 77   CHL1 H26B HAL3           0.09         1.008       0
   22630 MEMB 77   CHL1 H26C HAL3           0.09         1.008       0
   22631 MEMB 77   CHL1 C27  CTL3          -0.27        12.011       0
   22632 MEMB 77   CHL1 H27A HAL3           0.09         1.008       0
   22633 MEMB 77   CHL1 H27B HAL3           0.09         1.008       0
   22634 MEMB 77   CHL1 H27C HAL3           0.09         1.008       0
   22635 MEMB 78   CHL1 C3   CRL1           0.14        12.011       0
   22636 MEMB 78   CHL1 H3   HGA1           0.09         1.008       0
   22637 MEMB 78   CHL1 O3   OHL           -0.66       15.9994       0
   22638 MEMB 78   CHL1 H3'  HOL            0.43         1.008       0
   22639 MEMB 78   CHL1 C4   CRL2          -0.18        12.011       0
   22640 MEMB 78   CHL1 H4A  HGA2           0.09         1.008       0
   22641 MEMB 78   CHL1 H4B  HGA2           0.09         1.008       0
   22642 MEMB 78   CHL1 C5   CEL1              0        12.011       0
   22643 MEMB 78   CHL1 C6   CEL1          -0.15        12.011       0
   22644 MEMB 78   CHL1 H6   HEL1           0.15         1.008       0
   22645 MEMB 78   CHL1 C7   CRL2          -0.18        12.011       0
   22646 MEMB 78   CHL1 H7A  HGA2           0.09         1.008       0
   22647 MEMB 78   CHL1 H7B  HGA2           0.09         1.008       0
   22648 MEMB 78   CHL1 C8   CRL1          -0.09        12.011       0
   22649 MEMB 78   CHL1 H8   HGA1           0.09         1.008       0
   22650 MEMB 78   CHL1 C14  CRL1          -0.09        12.011       0
   22651 MEMB 78   CHL1 H14  HGA1           0.09         1.008       0
   22652 MEMB 78   CHL1 C15  CRL2          -0.18        12.011       0
   22653 MEMB 78   CHL1 H15A HGA2           0.09         1.008       0
   22654 MEMB 78   CHL1 H15B HGA2           0.09         1.008       0
   22655 MEMB 78   CHL1 C16  CRL2          -0.18        12.011       0
   22656 MEMB 78   CHL1 H16A HGA2           0.09         1.008       0
   22657 MEMB 78   CHL1 H16B HGA2           0.09         1.008       0
   22658 MEMB 78   CHL1 C17  CRL1          -0.09        12.011       0
   22659 MEMB 78   CHL1 H17  HGA1           0.09         1.008       0
   22660 MEMB 78   CHL1 C13  CRL1              0        12.011       0
   22661 MEMB 78   CHL1 C18  CTL3          -0.27        12.011       0
   22662 MEMB 78   CHL1 H18A HAL3           0.09         1.008       0
   22663 MEMB 78   CHL1 H18B HAL3           0.09         1.008       0
   22664 MEMB 78   CHL1 H18C HAL3           0.09         1.008       0
   22665 MEMB 78   CHL1 C12  CRL2          -0.18        12.011       0
   22666 MEMB 78   CHL1 H12A HGA2           0.09         1.008       0
   22667 MEMB 78   CHL1 H12B HGA2           0.09         1.008       0
   22668 MEMB 78   CHL1 C11  CRL2          -0.18        12.011       0
   22669 MEMB 78   CHL1 H11A HGA2           0.09         1.008       0
   22670 MEMB 78   CHL1 H11B HGA2           0.09         1.008       0
   22671 MEMB 78   CHL1 C9   CRL1          -0.09        12.011       0
   22672 MEMB 78   CHL1 H9   HGA1           0.09         1.008       0
   22673 MEMB 78   CHL1 C10  CRL1              0        12.011       0
   22674 MEMB 78   CHL1 C19  CTL3          -0.27        12.011       0
   22675 MEMB 78   CHL1 H19A HAL3           0.09         1.008       0
   22676 MEMB 78   CHL1 H19B HAL3           0.09         1.008       0
   22677 MEMB 78   CHL1 H19C HAL3           0.09         1.008       0
   22678 MEMB 78   CHL1 C1   CRL2          -0.18        12.011       0
   22679 MEMB 78   CHL1 H1A  HGA2           0.09         1.008       0
   22680 MEMB 78   CHL1 H1B  HGA2           0.09         1.008       0
   22681 MEMB 78   CHL1 C2   CRL2          -0.18        12.011       0
   22682 MEMB 78   CHL1 H2A  HGA2           0.09         1.008       0
   22683 MEMB 78   CHL1 H2B  HGA2           0.09         1.008       0
   22684 MEMB 78   CHL1 C20  CTL1          -0.09        12.011       0
   22685 MEMB 78   CHL1 H20  HAL1           0.09         1.008       0
   22686 MEMB 78   CHL1 C21  CTL3          -0.27        12.011       0
   22687 MEMB 78   CHL1 H21A HAL3           0.09         1.008       0
   22688 MEMB 78   CHL1 H21B HAL3           0.09         1.008       0
   22689 MEMB 78   CHL1 H21C HAL3           0.09         1.008       0
   22690 MEMB 78   CHL1 C22  CTL2          -0.18        12.011       0
   22691 MEMB 78   CHL1 H22A HAL2           0.09         1.008       0
   22692 MEMB 78   CHL1 H22B HAL2           0.09         1.008       0
   22693 MEMB 78   CHL1 C23  CTL2          -0.18        12.011       0
   22694 MEMB 78   CHL1 H23A HAL2           0.09         1.008       0
   22695 MEMB 78   CHL1 H23B HAL2           0.09         1.008       0
   22696 MEMB 78   CHL1 C24  CTL2          -0.18        12.011       0
   22697 MEMB 78   CHL1 H24A HAL2           0.09         1.008       0
   22698 MEMB 78   CHL1 H24B HAL2           0.09         1.008       0
   22699 MEMB 78   CHL1 C25  CTL1          -0.09        12.011       0
   22700 MEMB 78   CHL1 H25  HAL1           0.09         1.008       0
   22701 MEMB 78   CHL1 C26  CTL3          -0.27        12.011       0
   22702 MEMB 78   CHL1 H26A HAL3           0.09         1.008       0
   22703 MEMB 78   CHL1 H26B HAL3           0.09         1.008       0
   22704 MEMB 78   CHL1 H26C HAL3           0.09         1.008       0
   22705 MEMB 78   CHL1 C27  CTL3          -0.27        12.011       0
   22706 MEMB 78   CHL1 H27A HAL3           0.09         1.008       0
   22707 MEMB 78   CHL1 H27B HAL3           0.09         1.008       0
   22708 MEMB 78   CHL1 H27C HAL3           0.09         1.008       0
   22709 MEMB 79   CHL1 C3   CRL1           0.14        12.011       0
   22710 MEMB 79   CHL1 H3   HGA1           0.09         1.008       0
   22711 MEMB 79   CHL1 O3   OHL           -0.66       15.9994       0
   22712 MEMB 79   CHL1 H3'  HOL            0.43         1.008       0
   22713 MEMB 79   CHL1 C4   CRL2          -0.18        12.011       0
   22714 MEMB 79   CHL1 H4A  HGA2           0.09         1.008       0
   22715 MEMB 79   CHL1 H4B  HGA2           0.09         1.008       0
   22716 MEMB 79   CHL1 C5   CEL1              0        12.011       0
   22717 MEMB 79   CHL1 C6   CEL1          -0.15        12.011       0
   22718 MEMB 79   CHL1 H6   HEL1           0.15         1.008       0
   22719 MEMB 79   CHL1 C7   CRL2          -0.18        12.011       0
   22720 MEMB 79   CHL1 H7A  HGA2           0.09         1.008       0
   22721 MEMB 79   CHL1 H7B  HGA2           0.09         1.008       0
   22722 MEMB 79   CHL1 C8   CRL1          -0.09        12.011       0
   22723 MEMB 79   CHL1 H8   HGA1           0.09         1.008       0
   22724 MEMB 79   CHL1 C14  CRL1          -0.09        12.011       0
   22725 MEMB 79   CHL1 H14  HGA1           0.09         1.008       0
   22726 MEMB 79   CHL1 C15  CRL2          -0.18        12.011       0
   22727 MEMB 79   CHL1 H15A HGA2           0.09         1.008       0
   22728 MEMB 79   CHL1 H15B HGA2           0.09         1.008       0
   22729 MEMB 79   CHL1 C16  CRL2          -0.18        12.011       0
   22730 MEMB 79   CHL1 H16A HGA2           0.09         1.008       0
   22731 MEMB 79   CHL1 H16B HGA2           0.09         1.008       0
   22732 MEMB 79   CHL1 C17  CRL1          -0.09        12.011       0
   22733 MEMB 79   CHL1 H17  HGA1           0.09         1.008       0
   22734 MEMB 79   CHL1 C13  CRL1              0        12.011       0
   22735 MEMB 79   CHL1 C18  CTL3          -0.27        12.011       0
   22736 MEMB 79   CHL1 H18A HAL3           0.09         1.008       0
   22737 MEMB 79   CHL1 H18B HAL3           0.09         1.008       0
   22738 MEMB 79   CHL1 H18C HAL3           0.09         1.008       0
   22739 MEMB 79   CHL1 C12  CRL2          -0.18        12.011       0
   22740 MEMB 79   CHL1 H12A HGA2           0.09         1.008       0
   22741 MEMB 79   CHL1 H12B HGA2           0.09         1.008       0
   22742 MEMB 79   CHL1 C11  CRL2          -0.18        12.011       0
   22743 MEMB 79   CHL1 H11A HGA2           0.09         1.008       0
   22744 MEMB 79   CHL1 H11B HGA2           0.09         1.008       0
   22745 MEMB 79   CHL1 C9   CRL1          -0.09        12.011       0
   22746 MEMB 79   CHL1 H9   HGA1           0.09         1.008       0
   22747 MEMB 79   CHL1 C10  CRL1              0        12.011       0
   22748 MEMB 79   CHL1 C19  CTL3          -0.27        12.011       0
   22749 MEMB 79   CHL1 H19A HAL3           0.09         1.008       0
   22750 MEMB 79   CHL1 H19B HAL3           0.09         1.008       0
   22751 MEMB 79   CHL1 H19C HAL3           0.09         1.008       0
   22752 MEMB 79   CHL1 C1   CRL2          -0.18        12.011       0
   22753 MEMB 79   CHL1 H1A  HGA2           0.09         1.008       0
   22754 MEMB 79   CHL1 H1B  HGA2           0.09         1.008       0
   22755 MEMB 79   CHL1 C2   CRL2          -0.18        12.011       0
   22756 MEMB 79   CHL1 H2A  HGA2           0.09         1.008       0
   22757 MEMB 79   CHL1 H2B  HGA2           0.09         1.008       0
   22758 MEMB 79   CHL1 C20  CTL1          -0.09        12.011       0
   22759 MEMB 79   CHL1 H20  HAL1           0.09         1.008       0
   22760 MEMB 79   CHL1 C21  CTL3          -0.27        12.011       0
   22761 MEMB 79   CHL1 H21A HAL3           0.09         1.008       0
   22762 MEMB 79   CHL1 H21B HAL3           0.09         1.008       0
   22763 MEMB 79   CHL1 H21C HAL3           0.09         1.008       0
   22764 MEMB 79   CHL1 C22  CTL2          -0.18        12.011       0
   22765 MEMB 79   CHL1 H22A HAL2           0.09         1.008       0
   22766 MEMB 79   CHL1 H22B HAL2           0.09         1.008       0
   22767 MEMB 79   CHL1 C23  CTL2          -0.18        12.011       0
   22768 MEMB 79   CHL1 H23A HAL2           0.09         1.008       0
   22769 MEMB 79   CHL1 H23B HAL2           0.09         1.008       0
   22770 MEMB 79   CHL1 C24  CTL2          -0.18        12.011       0
   22771 MEMB 79   CHL1 H24A HAL2           0.09         1.008       0
   22772 MEMB 79   CHL1 H24B HAL2           0.09         1.008       0
   22773 MEMB 79   CHL1 C25  CTL1          -0.09        12.011       0
   22774 MEMB 79   CHL1 H25  HAL1           0.09         1.008       0
   22775 MEMB 79   CHL1 C26  CTL3          -0.27        12.011       0
   22776 MEMB 79   CHL1 H26A HAL3           0.09         1.008       0
   22777 MEMB 79   CHL1 H26B HAL3           0.09         1.008       0
   22778 MEMB 79   CHL1 H26C HAL3           0.09         1.008       0
   22779 MEMB 79   CHL1 C27  CTL3          -0.27        12.011       0
   22780 MEMB 79   CHL1 H27A HAL3           0.09         1.008       0
   22781 MEMB 79   CHL1 H27B HAL3           0.09         1.008       0
   22782 MEMB 79   CHL1 H27C HAL3           0.09         1.008       0
   22783 MEMB 80   CHL1 C3   CRL1           0.14        12.011       0
   22784 MEMB 80   CHL1 H3   HGA1           0.09         1.008       0
   22785 MEMB 80   CHL1 O3   OHL           -0.66       15.9994       0
   22786 MEMB 80   CHL1 H3'  HOL            0.43         1.008       0
   22787 MEMB 80   CHL1 C4   CRL2          -0.18        12.011       0
   22788 MEMB 80   CHL1 H4A  HGA2           0.09         1.008       0
   22789 MEMB 80   CHL1 H4B  HGA2           0.09         1.008       0
   22790 MEMB 80   CHL1 C5   CEL1              0        12.011       0
   22791 MEMB 80   CHL1 C6   CEL1          -0.15        12.011       0
   22792 MEMB 80   CHL1 H6   HEL1           0.15         1.008       0
   22793 MEMB 80   CHL1 C7   CRL2          -0.18        12.011       0
   22794 MEMB 80   CHL1 H7A  HGA2           0.09         1.008       0
   22795 MEMB 80   CHL1 H7B  HGA2           0.09         1.008       0
   22796 MEMB 80   CHL1 C8   CRL1          -0.09        12.011       0
   22797 MEMB 80   CHL1 H8   HGA1           0.09         1.008       0
   22798 MEMB 80   CHL1 C14  CRL1          -0.09        12.011       0
   22799 MEMB 80   CHL1 H14  HGA1           0.09         1.008       0
   22800 MEMB 80   CHL1 C15  CRL2          -0.18        12.011       0
   22801 MEMB 80   CHL1 H15A HGA2           0.09         1.008       0
   22802 MEMB 80   CHL1 H15B HGA2           0.09         1.008       0
   22803 MEMB 80   CHL1 C16  CRL2          -0.18        12.011       0
   22804 MEMB 80   CHL1 H16A HGA2           0.09         1.008       0
   22805 MEMB 80   CHL1 H16B HGA2           0.09         1.008       0
   22806 MEMB 80   CHL1 C17  CRL1          -0.09        12.011       0
   22807 MEMB 80   CHL1 H17  HGA1           0.09         1.008       0
   22808 MEMB 80   CHL1 C13  CRL1              0        12.011       0
   22809 MEMB 80   CHL1 C18  CTL3          -0.27        12.011       0
   22810 MEMB 80   CHL1 H18A HAL3           0.09         1.008       0
   22811 MEMB 80   CHL1 H18B HAL3           0.09         1.008       0
   22812 MEMB 80   CHL1 H18C HAL3           0.09         1.008       0
   22813 MEMB 80   CHL1 C12  CRL2          -0.18        12.011       0
   22814 MEMB 80   CHL1 H12A HGA2           0.09         1.008       0
   22815 MEMB 80   CHL1 H12B HGA2           0.09         1.008       0
   22816 MEMB 80   CHL1 C11  CRL2          -0.18        12.011       0
   22817 MEMB 80   CHL1 H11A HGA2           0.09         1.008       0
   22818 MEMB 80   CHL1 H11B HGA2           0.09         1.008       0
   22819 MEMB 80   CHL1 C9   CRL1          -0.09        12.011       0
   22820 MEMB 80   CHL1 H9   HGA1           0.09         1.008       0
   22821 MEMB 80   CHL1 C10  CRL1              0        12.011       0
   22822 MEMB 80   CHL1 C19  CTL3          -0.27        12.011       0
   22823 MEMB 80   CHL1 H19A HAL3           0.09         1.008       0
   22824 MEMB 80   CHL1 H19B HAL3           0.09         1.008       0
   22825 MEMB 80   CHL1 H19C HAL3           0.09         1.008       0
   22826 MEMB 80   CHL1 C1   CRL2          -0.18        12.011       0
   22827 MEMB 80   CHL1 H1A  HGA2           0.09         1.008       0
   22828 MEMB 80   CHL1 H1B  HGA2           0.09         1.008       0
   22829 MEMB 80   CHL1 C2   CRL2          -0.18        12.011       0
   22830 MEMB 80   CHL1 H2A  HGA2           0.09         1.008       0
   22831 MEMB 80   CHL1 H2B  HGA2           0.09         1.008       0
   22832 MEMB 80   CHL1 C20  CTL1          -0.09        12.011       0
   22833 MEMB 80   CHL1 H20  HAL1           0.09         1.008       0
   22834 MEMB 80   CHL1 C21  CTL3          -0.27        12.011       0
   22835 MEMB 80   CHL1 H21A HAL3           0.09         1.008       0
   22836 MEMB 80   CHL1 H21B HAL3           0.09         1.008       0
   22837 MEMB 80   CHL1 H21C HAL3           0.09         1.008       0
   22838 MEMB 80   CHL1 C22  CTL2          -0.18        12.011       0
   22839 MEMB 80   CHL1 H22A HAL2           0.09         1.008       0
   22840 MEMB 80   CHL1 H22B HAL2           0.09         1.008       0
   22841 MEMB 80   CHL1 C23  CTL2          -0.18        12.011       0
   22842 MEMB 80   CHL1 H23A HAL2           0.09         1.008       0
   22843 MEMB 80   CHL1 H23B HAL2           0.09         1.008       0
   22844 MEMB 80   CHL1 C24  CTL2          -0.18        12.011       0
   22845 MEMB 80   CHL1 H24A HAL2           0.09         1.008       0
   22846 MEMB 80   CHL1 H24B HAL2           0.09         1.008       0
   22847 MEMB 80   CHL1 C25  CTL1          -0.09        12.011       0
   22848 MEMB 80   CHL1 H25  HAL1           0.09         1.008       0
   22849 MEMB 80   CHL1 C26  CTL3          -0.27        12.011       0
   22850 MEMB 80   CHL1 H26A HAL3           0.09         1.008       0
   22851 MEMB 80   CHL1 H26B HAL3           0.09         1.008       0
   22852 MEMB 80   CHL1 H26C HAL3           0.09         1.008       0
   22853 MEMB 80   CHL1 C27  CTL3          -0.27        12.011       0
   22854 MEMB 80   CHL1 H27A HAL3           0.09         1.008       0
   22855 MEMB 80   CHL1 H27B HAL3           0.09         1.008       0
   22856 MEMB 80   CHL1 H27C HAL3           0.09         1.008       0
   22857 MEMB 81   CHL1 C3   CRL1           0.14        12.011       0
   22858 MEMB 81   CHL1 H3   HGA1           0.09         1.008       0
   22859 MEMB 81   CHL1 O3   OHL           -0.66       15.9994       0
   22860 MEMB 81   CHL1 H3'  HOL            0.43         1.008       0
   22861 MEMB 81   CHL1 C4   CRL2          -0.18        12.011       0
   22862 MEMB 81   CHL1 H4A  HGA2           0.09         1.008       0
   22863 MEMB 81   CHL1 H4B  HGA2           0.09         1.008       0
   22864 MEMB 81   CHL1 C5   CEL1              0        12.011       0
   22865 MEMB 81   CHL1 C6   CEL1          -0.15        12.011       0
   22866 MEMB 81   CHL1 H6   HEL1           0.15         1.008       0
   22867 MEMB 81   CHL1 C7   CRL2          -0.18        12.011       0
   22868 MEMB 81   CHL1 H7A  HGA2           0.09         1.008       0
   22869 MEMB 81   CHL1 H7B  HGA2           0.09         1.008       0
   22870 MEMB 81   CHL1 C8   CRL1          -0.09        12.011       0
   22871 MEMB 81   CHL1 H8   HGA1           0.09         1.008       0
   22872 MEMB 81   CHL1 C14  CRL1          -0.09        12.011       0
   22873 MEMB 81   CHL1 H14  HGA1           0.09         1.008       0
   22874 MEMB 81   CHL1 C15  CRL2          -0.18        12.011       0
   22875 MEMB 81   CHL1 H15A HGA2           0.09         1.008       0
   22876 MEMB 81   CHL1 H15B HGA2           0.09         1.008       0
   22877 MEMB 81   CHL1 C16  CRL2          -0.18        12.011       0
   22878 MEMB 81   CHL1 H16A HGA2           0.09         1.008       0
   22879 MEMB 81   CHL1 H16B HGA2           0.09         1.008       0
   22880 MEMB 81   CHL1 C17  CRL1          -0.09        12.011       0
   22881 MEMB 81   CHL1 H17  HGA1           0.09         1.008       0
   22882 MEMB 81   CHL1 C13  CRL1              0        12.011       0
   22883 MEMB 81   CHL1 C18  CTL3          -0.27        12.011       0
   22884 MEMB 81   CHL1 H18A HAL3           0.09         1.008       0
   22885 MEMB 81   CHL1 H18B HAL3           0.09         1.008       0
   22886 MEMB 81   CHL1 H18C HAL3           0.09         1.008       0
   22887 MEMB 81   CHL1 C12  CRL2          -0.18        12.011       0
   22888 MEMB 81   CHL1 H12A HGA2           0.09         1.008       0
   22889 MEMB 81   CHL1 H12B HGA2           0.09         1.008       0
   22890 MEMB 81   CHL1 C11  CRL2          -0.18        12.011       0
   22891 MEMB 81   CHL1 H11A HGA2           0.09         1.008       0
   22892 MEMB 81   CHL1 H11B HGA2           0.09         1.008       0
   22893 MEMB 81   CHL1 C9   CRL1          -0.09        12.011       0
   22894 MEMB 81   CHL1 H9   HGA1           0.09         1.008       0
   22895 MEMB 81   CHL1 C10  CRL1              0        12.011       0
   22896 MEMB 81   CHL1 C19  CTL3          -0.27        12.011       0
   22897 MEMB 81   CHL1 H19A HAL3           0.09         1.008       0
   22898 MEMB 81   CHL1 H19B HAL3           0.09         1.008       0
   22899 MEMB 81   CHL1 H19C HAL3           0.09         1.008       0
   22900 MEMB 81   CHL1 C1   CRL2          -0.18        12.011       0
   22901 MEMB 81   CHL1 H1A  HGA2           0.09         1.008       0
   22902 MEMB 81   CHL1 H1B  HGA2           0.09         1.008       0
   22903 MEMB 81   CHL1 C2   CRL2          -0.18        12.011       0
   22904 MEMB 81   CHL1 H2A  HGA2           0.09         1.008       0
   22905 MEMB 81   CHL1 H2B  HGA2           0.09         1.008       0
   22906 MEMB 81   CHL1 C20  CTL1          -0.09        12.011       0
   22907 MEMB 81   CHL1 H20  HAL1           0.09         1.008       0
   22908 MEMB 81   CHL1 C21  CTL3          -0.27        12.011       0
   22909 MEMB 81   CHL1 H21A HAL3           0.09         1.008       0
   22910 MEMB 81   CHL1 H21B HAL3           0.09         1.008       0
   22911 MEMB 81   CHL1 H21C HAL3           0.09         1.008       0
   22912 MEMB 81   CHL1 C22  CTL2          -0.18        12.011       0
   22913 MEMB 81   CHL1 H22A HAL2           0.09         1.008       0
   22914 MEMB 81   CHL1 H22B HAL2           0.09         1.008       0
   22915 MEMB 81   CHL1 C23  CTL2          -0.18        12.011       0
   22916 MEMB 81   CHL1 H23A HAL2           0.09         1.008       0
   22917 MEMB 81   CHL1 H23B HAL2           0.09         1.008       0
   22918 MEMB 81   CHL1 C24  CTL2          -0.18        12.011       0
   22919 MEMB 81   CHL1 H24A HAL2           0.09         1.008       0
   22920 MEMB 81   CHL1 H24B HAL2           0.09         1.008       0
   22921 MEMB 81   CHL1 C25  CTL1          -0.09        12.011       0
   22922 MEMB 81   CHL1 H25  HAL1           0.09         1.008       0
   22923 MEMB 81   CHL1 C26  CTL3          -0.27        12.011       0
   22924 MEMB 81   CHL1 H26A HAL3           0.09         1.008       0
   22925 MEMB 81   CHL1 H26B HAL3           0.09         1.008       0
   22926 MEMB 81   CHL1 H26C HAL3           0.09         1.008       0
   22927 MEMB 81   CHL1 C27  CTL3          -0.27        12.011       0
   22928 MEMB 81   CHL1 H27A HAL3           0.09         1.008       0
   22929 MEMB 81   CHL1 H27B HAL3           0.09         1.008       0
   22930 MEMB 81   CHL1 H27C HAL3           0.09         1.008       0
   22931 MEMB 82   POPS N    NH3L           -0.3        14.007       0
   22932 MEMB 82   POPS HN1  HCL            0.33         1.008       0
   22933 MEMB 82   POPS HN2  HCL            0.33         1.008       0
   22934 MEMB 82   POPS HN3  HCL            0.33         1.008       0
   22935 MEMB 82   POPS C12  CTL1           0.21        12.011       0
   22936 MEMB 82   POPS H12A HBL             0.1         1.008       0
   22937 MEMB 82   POPS C13  CCL            0.34        12.011       0
   22938 MEMB 82   POPS O13A OCL           -0.67       15.9994       0
   22939 MEMB 82   POPS O13B OCL           -0.67       15.9994       0
   22940 MEMB 82   POPS C11  CTL2          -0.08        12.011       0
   22941 MEMB 82   POPS H11A HAL2           0.09         1.008       0
   22942 MEMB 82   POPS H11B HAL2           0.09         1.008       0
   22943 MEMB 82   POPS P    PL              1.5        30.974       0
   22944 MEMB 82   POPS O13  O2L           -0.78       15.9994       0
   22945 MEMB 82   POPS O14  O2L           -0.78       15.9994       0
   22946 MEMB 82   POPS O12  OSLP          -0.57       15.9994       0
   22947 MEMB 82   POPS O11  OSLP          -0.57       15.9994       0
   22948 MEMB 82   POPS C1   CTL2          -0.08        12.011       0
   22949 MEMB 82   POPS HA   HAL2           0.09         1.008       0
   22950 MEMB 82   POPS HB   HAL2           0.09         1.008       0
   22951 MEMB 82   POPS C2   CTL1           0.17        12.011       0
   22952 MEMB 82   POPS HS   HAL1           0.09         1.008       0
   22953 MEMB 82   POPS O21  OSL           -0.49       15.9994       0
   22954 MEMB 82   POPS C21  CL              0.9        12.011       0
   22955 MEMB 82   POPS O22  OBL           -0.63       15.9994       0
   22956 MEMB 82   POPS C22  CTL2          -0.22        12.011       0
   22957 MEMB 82   POPS H2R  HAL2           0.09         1.008       0
   22958 MEMB 82   POPS H2S  HAL2           0.09         1.008       0
   22959 MEMB 82   POPS C3   CTL2           0.08        12.011       0
   22960 MEMB 82   POPS HX   HAL2           0.09         1.008       0
   22961 MEMB 82   POPS HY   HAL2           0.09         1.008       0
   22962 MEMB 82   POPS O31  OSL           -0.49       15.9994       0
   22963 MEMB 82   POPS C31  CL              0.9        12.011       0
   22964 MEMB 82   POPS O32  OBL           -0.63       15.9994       0
   22965 MEMB 82   POPS C32  CTL2          -0.22        12.011       0
   22966 MEMB 82   POPS H2X  HAL2           0.09         1.008       0
   22967 MEMB 82   POPS H2Y  HAL2           0.09         1.008       0
   22968 MEMB 82   POPS C23  CTL2          -0.18        12.011       0
   22969 MEMB 82   POPS H3R  HAL2           0.09         1.008       0
   22970 MEMB 82   POPS H3S  HAL2           0.09         1.008       0
   22971 MEMB 82   POPS C24  CTL2          -0.18        12.011       0
   22972 MEMB 82   POPS H4R  HAL2           0.09         1.008       0
   22973 MEMB 82   POPS H4S  HAL2           0.09         1.008       0
   22974 MEMB 82   POPS C25  CTL2          -0.18        12.011       0
   22975 MEMB 82   POPS H5R  HAL2           0.09         1.008       0
   22976 MEMB 82   POPS H5S  HAL2           0.09         1.008       0
   22977 MEMB 82   POPS C26  CTL2          -0.18        12.011       0
   22978 MEMB 82   POPS H6R  HAL2           0.09         1.008       0
   22979 MEMB 82   POPS H6S  HAL2           0.09         1.008       0
   22980 MEMB 82   POPS C27  CTL2          -0.18        12.011       0
   22981 MEMB 82   POPS H7R  HAL2           0.09         1.008       0
   22982 MEMB 82   POPS H7S  HAL2           0.09         1.008       0
   22983 MEMB 82   POPS C28  CTL2          -0.18        12.011       0
   22984 MEMB 82   POPS H8R  HAL2           0.09         1.008       0
   22985 MEMB 82   POPS H8S  HAL2           0.09         1.008       0
   22986 MEMB 82   POPS C29  CEL1          -0.15        12.011       0
   22987 MEMB 82   POPS H91  HEL1           0.15         1.008       0
   22988 MEMB 82   POPS C210 CEL1          -0.15        12.011       0
   22989 MEMB 82   POPS H101 HEL1           0.15         1.008       0
   22990 MEMB 82   POPS C211 CTL2          -0.18        12.011       0
   22991 MEMB 82   POPS H11R HAL2           0.09         1.008       0
   22992 MEMB 82   POPS H11S HAL2           0.09         1.008       0
   22993 MEMB 82   POPS C212 CTL2          -0.18        12.011       0
   22994 MEMB 82   POPS H12R HAL2           0.09         1.008       0
   22995 MEMB 82   POPS H12S HAL2           0.09         1.008       0
   22996 MEMB 82   POPS C213 CTL2          -0.18        12.011       0
   22997 MEMB 82   POPS H13R HAL2           0.09         1.008       0
   22998 MEMB 82   POPS H13S HAL2           0.09         1.008       0
   22999 MEMB 82   POPS C214 CTL2          -0.18        12.011       0
   23000 MEMB 82   POPS H14R HAL2           0.09         1.008       0
   23001 MEMB 82   POPS H14S HAL2           0.09         1.008       0
   23002 MEMB 82   POPS C215 CTL2          -0.18        12.011       0
   23003 MEMB 82   POPS H15R HAL2           0.09         1.008       0
   23004 MEMB 82   POPS H15S HAL2           0.09         1.008       0
   23005 MEMB 82   POPS C216 CTL2          -0.18        12.011       0
   23006 MEMB 82   POPS H16R HAL2           0.09         1.008       0
   23007 MEMB 82   POPS H16S HAL2           0.09         1.008       0
   23008 MEMB 82   POPS C217 CTL2          -0.18        12.011       0
   23009 MEMB 82   POPS H17R HAL2           0.09         1.008       0
   23010 MEMB 82   POPS H17S HAL2           0.09         1.008       0
   23011 MEMB 82   POPS C218 CTL3          -0.27        12.011       0
   23012 MEMB 82   POPS H18R HAL3           0.09         1.008       0
   23013 MEMB 82   POPS H18S HAL3           0.09         1.008       0
   23014 MEMB 82   POPS H18T HAL3           0.09         1.008       0
   23015 MEMB 82   POPS C33  CTL2          -0.18        12.011       0
   23016 MEMB 82   POPS H3X  HAL2           0.09         1.008       0
   23017 MEMB 82   POPS H3Y  HAL2           0.09         1.008       0
   23018 MEMB 82   POPS C34  CTL2          -0.18        12.011       0
   23019 MEMB 82   POPS H4X  HAL2           0.09         1.008       0
   23020 MEMB 82   POPS H4Y  HAL2           0.09         1.008       0
   23021 MEMB 82   POPS C35  CTL2          -0.18        12.011       0
   23022 MEMB 82   POPS H5X  HAL2           0.09         1.008       0
   23023 MEMB 82   POPS H5Y  HAL2           0.09         1.008       0
   23024 MEMB 82   POPS C36  CTL2          -0.18        12.011       0
   23025 MEMB 82   POPS H6X  HAL2           0.09         1.008       0
   23026 MEMB 82   POPS H6Y  HAL2           0.09         1.008       0
   23027 MEMB 82   POPS C37  CTL2          -0.18        12.011       0
   23028 MEMB 82   POPS H7X  HAL2           0.09         1.008       0
   23029 MEMB 82   POPS H7Y  HAL2           0.09         1.008       0
   23030 MEMB 82   POPS C38  CTL2          -0.18        12.011       0
   23031 MEMB 82   POPS H8X  HAL2           0.09         1.008       0
   23032 MEMB 82   POPS H8Y  HAL2           0.09         1.008       0
   23033 MEMB 82   POPS C39  CTL2          -0.18        12.011       0
   23034 MEMB 82   POPS H9X  HAL2           0.09         1.008       0
   23035 MEMB 82   POPS H9Y  HAL2           0.09         1.008       0
   23036 MEMB 82   POPS C310 CTL2          -0.18        12.011       0
   23037 MEMB 82   POPS H10X HAL2           0.09         1.008       0
   23038 MEMB 82   POPS H10Y HAL2           0.09         1.008       0
   23039 MEMB 82   POPS C311 CTL2          -0.18        12.011       0
   23040 MEMB 82   POPS H11X HAL2           0.09         1.008       0
   23041 MEMB 82   POPS H11Y HAL2           0.09         1.008       0
   23042 MEMB 82   POPS C312 CTL2          -0.18        12.011       0
   23043 MEMB 82   POPS H12X HAL2           0.09         1.008       0
   23044 MEMB 82   POPS H12Y HAL2           0.09         1.008       0
   23045 MEMB 82   POPS C313 CTL2          -0.18        12.011       0
   23046 MEMB 82   POPS H13X HAL2           0.09         1.008       0
   23047 MEMB 82   POPS H13Y HAL2           0.09         1.008       0
   23048 MEMB 82   POPS C314 CTL2          -0.18        12.011       0
   23049 MEMB 82   POPS H14X HAL2           0.09         1.008       0
   23050 MEMB 82   POPS H14Y HAL2           0.09         1.008       0
   23051 MEMB 82   POPS C315 CTL2          -0.18        12.011       0
   23052 MEMB 82   POPS H15X HAL2           0.09         1.008       0
   23053 MEMB 82   POPS H15Y HAL2           0.09         1.008       0
   23054 MEMB 82   POPS C316 CTL3          -0.27        12.011       0
   23055 MEMB 82   POPS H16X HAL3           0.09         1.008       0
   23056 MEMB 82   POPS H16Y HAL3           0.09         1.008       0
   23057 MEMB 82   POPS H16Z HAL3           0.09         1.008       0
   23058 MEMB 83   PSM  N    NTL            -0.6        14.007       0
   23059 MEMB 83   PSM  C15  CTL5          -0.35        12.011       0
   23060 MEMB 83   PSM  H15A HL             0.25         1.008       0
   23061 MEMB 83   PSM  H15B HL             0.25         1.008       0
   23062 MEMB 83   PSM  H15C HL             0.25         1.008       0
   23063 MEMB 83   PSM  C14  CTL5          -0.35        12.011       0
   23064 MEMB 83   PSM  H14A HL             0.25         1.008       0
   23065 MEMB 83   PSM  H14B HL             0.25         1.008       0
   23066 MEMB 83   PSM  H14C HL             0.25         1.008       0
   23067 MEMB 83   PSM  C13  CTL5          -0.35        12.011       0
   23068 MEMB 83   PSM  H13A HL             0.25         1.008       0
   23069 MEMB 83   PSM  H13B HL             0.25         1.008       0
   23070 MEMB 83   PSM  H13C HL             0.25         1.008       0
   23071 MEMB 83   PSM  C12  CTL2           -0.1        12.011       0
   23072 MEMB 83   PSM  H12A HL             0.25         1.008       0
   23073 MEMB 83   PSM  H12B HL             0.25         1.008       0
   23074 MEMB 83   PSM  C11  CTL2          -0.08        12.011       0
   23075 MEMB 83   PSM  H11A HAL2           0.09         1.008       0
   23076 MEMB 83   PSM  H11B HAL2           0.09         1.008       0
   23077 MEMB 83   PSM  P    PL              1.5        30.974       0
   23078 MEMB 83   PSM  O13  O2L           -0.78       15.9994       0
   23079 MEMB 83   PSM  O14  O2L           -0.78       15.9994       0
   23080 MEMB 83   PSM  O11  OSLP          -0.57       15.9994       0
   23081 MEMB 83   PSM  O12  OSLP          -0.57       15.9994       0
   23082 MEMB 83   PSM  C1S  CTL2          -0.08        12.011       0
   23083 MEMB 83   PSM  H1S  HAL2           0.09         1.008       0
   23084 MEMB 83   PSM  H1T  HAL2           0.09         1.008       0
   23085 MEMB 83   PSM  NF   NHL            -0.7        14.007       0
   23086 MEMB 83   PSM  HNF  H              0.35         1.008       0
   23087 MEMB 83   PSM  C2S  CTL1            0.3        12.011       0
   23088 MEMB 83   PSM  H2S  HAL1           0.05         1.008       0
   23089 MEMB 83   PSM  C3S  CTO1            0.5        12.011       0
   23090 MEMB 83   PSM  H3S  HAL1          -0.11         1.008       0
   23091 MEMB 83   PSM  O3   OHL           -0.69       15.9994       0
   23092 MEMB 83   PSM  HO3  HOL             0.3         1.008       0
   23093 MEMB 83   PSM  C4S  CEL3          -0.15        12.011       0
   23094 MEMB 83   PSM  H4S  HEL1           0.15         1.008       0
   23095 MEMB 83   PSM  C5S  CEL3          -0.15        12.011       0
   23096 MEMB 83   PSM  H5S  HEL1           0.15         1.008       0
   23097 MEMB 83   PSM  C6S  CTL2          -0.18        12.011       0
   23098 MEMB 83   PSM  H6S  HAL2           0.09         1.008       0
   23099 MEMB 83   PSM  H6T  HAL2           0.09         1.008       0
   23100 MEMB 83   PSM  C7S  CTL2          -0.18        12.011       0
   23101 MEMB 83   PSM  H7S  HAL2           0.09         1.008       0
   23102 MEMB 83   PSM  H7T  HAL2           0.09         1.008       0
   23103 MEMB 83   PSM  C8S  CTL2          -0.18        12.011       0
   23104 MEMB 83   PSM  H8S  HAL2           0.09         1.008       0
   23105 MEMB 83   PSM  H8T  HAL2           0.09         1.008       0
   23106 MEMB 83   PSM  C9S  CTL2          -0.18        12.011       0
   23107 MEMB 83   PSM  H9S  HAL2           0.09         1.008       0
   23108 MEMB 83   PSM  H9T  HAL2           0.09         1.008       0
   23109 MEMB 83   PSM  C10S CTL2          -0.18        12.011       0
   23110 MEMB 83   PSM  H10S HAL2           0.09         1.008       0
   23111 MEMB 83   PSM  H10T HAL2           0.09         1.008       0
   23112 MEMB 83   PSM  C11S CTL2          -0.18        12.011       0
   23113 MEMB 83   PSM  H11S HAL2           0.09         1.008       0
   23114 MEMB 83   PSM  H11T HAL2           0.09         1.008       0
   23115 MEMB 83   PSM  C12S CTL2          -0.18        12.011       0
   23116 MEMB 83   PSM  H12S HAL2           0.09         1.008       0
   23117 MEMB 83   PSM  H12T HAL2           0.09         1.008       0
   23118 MEMB 83   PSM  C13S CTL2          -0.18        12.011       0
   23119 MEMB 83   PSM  H13S HAL2           0.09         1.008       0
   23120 MEMB 83   PSM  H13T HAL2           0.09         1.008       0
   23121 MEMB 83   PSM  C14S CTL2          -0.18        12.011       0
   23122 MEMB 83   PSM  H14S HAL2           0.09         1.008       0
   23123 MEMB 83   PSM  H14T HAL2           0.09         1.008       0
   23124 MEMB 83   PSM  C15S CTL2          -0.18        12.011       0
   23125 MEMB 83   PSM  H15S HAL2           0.09         1.008       0
   23126 MEMB 83   PSM  H15T HAL2           0.09         1.008       0
   23127 MEMB 83   PSM  C16S CTL2          -0.18        12.011       0
   23128 MEMB 83   PSM  H16S HAL2           0.09         1.008       0
   23129 MEMB 83   PSM  H16T HAL2           0.09         1.008       0
   23130 MEMB 83   PSM  C17S CTL2          -0.18        12.011       0
   23131 MEMB 83   PSM  H17S HAL2           0.09         1.008       0
   23132 MEMB 83   PSM  H17T HAL2           0.09         1.008       0
   23133 MEMB 83   PSM  C18S CTL3          -0.27        12.011       0
   23134 MEMB 83   PSM  H18S HAL3           0.09         1.008       0
   23135 MEMB 83   PSM  H18T HAL3           0.09         1.008       0
   23136 MEMB 83   PSM  H18U HAL3           0.09         1.008       0
   23137 MEMB 83   PSM  C1F  C              0.55        12.011       0
   23138 MEMB 83   PSM  OF   O              -0.6        15.999       0
   23139 MEMB 83   PSM  C2F  CTL2          -0.07        12.011       0
   23140 MEMB 83   PSM  H2F  HAL2           0.06         1.008       0
   23141 MEMB 83   PSM  H2G  HAL2           0.06         1.008       0
   23142 MEMB 83   PSM  C3F  CTL2          -0.18        12.011       0
   23143 MEMB 83   PSM  H3F  HAL2           0.09         1.008       0
   23144 MEMB 83   PSM  H3G  HAL2           0.09         1.008       0
   23145 MEMB 83   PSM  C4F  CTL2          -0.18        12.011       0
   23146 MEMB 83   PSM  H4F  HAL2           0.09         1.008       0
   23147 MEMB 83   PSM  H4G  HAL2           0.09         1.008       0
   23148 MEMB 83   PSM  C5F  CTL2          -0.18        12.011       0
   23149 MEMB 83   PSM  H5F  HAL2           0.09         1.008       0
   23150 MEMB 83   PSM  H5G  HAL2           0.09         1.008       0
   23151 MEMB 83   PSM  C6F  CTL2          -0.18        12.011       0
   23152 MEMB 83   PSM  H6F  HAL2           0.09         1.008       0
   23153 MEMB 83   PSM  H6G  HAL2           0.09         1.008       0
   23154 MEMB 83   PSM  C7F  CTL2          -0.18        12.011       0
   23155 MEMB 83   PSM  H7F  HAL2           0.09         1.008       0
   23156 MEMB 83   PSM  H7G  HAL2           0.09         1.008       0
   23157 MEMB 83   PSM  C8F  CTL2          -0.18        12.011       0
   23158 MEMB 83   PSM  H8F  HAL2           0.09         1.008       0
   23159 MEMB 83   PSM  H8G  HAL2           0.09         1.008       0
   23160 MEMB 83   PSM  C9F  CTL2          -0.18        12.011       0
   23161 MEMB 83   PSM  H9F  HAL2           0.09         1.008       0
   23162 MEMB 83   PSM  H9G  HAL2           0.09         1.008       0
   23163 MEMB 83   PSM  C10F CTL2          -0.18        12.011       0
   23164 MEMB 83   PSM  H10F HAL2           0.09         1.008       0
   23165 MEMB 83   PSM  H10G HAL2           0.09         1.008       0
   23166 MEMB 83   PSM  C11F CTL2          -0.18        12.011       0
   23167 MEMB 83   PSM  H11F HAL2           0.09         1.008       0
   23168 MEMB 83   PSM  H11G HAL2           0.09         1.008       0
   23169 MEMB 83   PSM  C12F CTL2          -0.18        12.011       0
   23170 MEMB 83   PSM  H12F HAL2           0.09         1.008       0
   23171 MEMB 83   PSM  H12G HAL2           0.09         1.008       0
   23172 MEMB 83   PSM  C13F CTL2          -0.18        12.011       0
   23173 MEMB 83   PSM  H13F HAL2           0.09         1.008       0
   23174 MEMB 83   PSM  H13G HAL2           0.09         1.008       0
   23175 MEMB 83   PSM  C14F CTL2          -0.18        12.011       0
   23176 MEMB 83   PSM  H14F HAL2           0.09         1.008       0
   23177 MEMB 83   PSM  H14G HAL2           0.09         1.008       0
   23178 MEMB 83   PSM  C15F CTL2          -0.18        12.011       0
   23179 MEMB 83   PSM  H15F HAL2           0.09         1.008       0
   23180 MEMB 83   PSM  H15G HAL2           0.09         1.008       0
   23181 MEMB 83   PSM  C16F CTL3          -0.27        12.011       0
   23182 MEMB 83   PSM  H16F HAL3           0.09         1.008       0
   23183 MEMB 83   PSM  H16G HAL3           0.09         1.008       0
   23184 MEMB 83   PSM  H16H HAL3           0.09         1.008       0
   23185 MEMB 84   POPS N    NH3L           -0.3        14.007       0
   23186 MEMB 84   POPS HN1  HCL            0.33         1.008       0
   23187 MEMB 84   POPS HN2  HCL            0.33         1.008       0
   23188 MEMB 84   POPS HN3  HCL            0.33         1.008       0
   23189 MEMB 84   POPS C12  CTL1           0.21        12.011       0
   23190 MEMB 84   POPS H12A HBL             0.1         1.008       0
   23191 MEMB 84   POPS C13  CCL            0.34        12.011       0
   23192 MEMB 84   POPS O13A OCL           -0.67       15.9994       0
   23193 MEMB 84   POPS O13B OCL           -0.67       15.9994       0
   23194 MEMB 84   POPS C11  CTL2          -0.08        12.011       0
   23195 MEMB 84   POPS H11A HAL2           0.09         1.008       0
   23196 MEMB 84   POPS H11B HAL2           0.09         1.008       0
   23197 MEMB 84   POPS P    PL              1.5        30.974       0
   23198 MEMB 84   POPS O13  O2L           -0.78       15.9994       0
   23199 MEMB 84   POPS O14  O2L           -0.78       15.9994       0
   23200 MEMB 84   POPS O12  OSLP          -0.57       15.9994       0
   23201 MEMB 84   POPS O11  OSLP          -0.57       15.9994       0
   23202 MEMB 84   POPS C1   CTL2          -0.08        12.011       0
   23203 MEMB 84   POPS HA   HAL2           0.09         1.008       0
   23204 MEMB 84   POPS HB   HAL2           0.09         1.008       0
   23205 MEMB 84   POPS C2   CTL1           0.17        12.011       0
   23206 MEMB 84   POPS HS   HAL1           0.09         1.008       0
   23207 MEMB 84   POPS O21  OSL           -0.49       15.9994       0
   23208 MEMB 84   POPS C21  CL              0.9        12.011       0
   23209 MEMB 84   POPS O22  OBL           -0.63       15.9994       0
   23210 MEMB 84   POPS C22  CTL2          -0.22        12.011       0
   23211 MEMB 84   POPS H2R  HAL2           0.09         1.008       0
   23212 MEMB 84   POPS H2S  HAL2           0.09         1.008       0
   23213 MEMB 84   POPS C3   CTL2           0.08        12.011       0
   23214 MEMB 84   POPS HX   HAL2           0.09         1.008       0
   23215 MEMB 84   POPS HY   HAL2           0.09         1.008       0
   23216 MEMB 84   POPS O31  OSL           -0.49       15.9994       0
   23217 MEMB 84   POPS C31  CL              0.9        12.011       0
   23218 MEMB 84   POPS O32  OBL           -0.63       15.9994       0
   23219 MEMB 84   POPS C32  CTL2          -0.22        12.011       0
   23220 MEMB 84   POPS H2X  HAL2           0.09         1.008       0
   23221 MEMB 84   POPS H2Y  HAL2           0.09         1.008       0
   23222 MEMB 84   POPS C23  CTL2          -0.18        12.011       0
   23223 MEMB 84   POPS H3R  HAL2           0.09         1.008       0
   23224 MEMB 84   POPS H3S  HAL2           0.09         1.008       0
   23225 MEMB 84   POPS C24  CTL2          -0.18        12.011       0
   23226 MEMB 84   POPS H4R  HAL2           0.09         1.008       0
   23227 MEMB 84   POPS H4S  HAL2           0.09         1.008       0
   23228 MEMB 84   POPS C25  CTL2          -0.18        12.011       0
   23229 MEMB 84   POPS H5R  HAL2           0.09         1.008       0
   23230 MEMB 84   POPS H5S  HAL2           0.09         1.008       0
   23231 MEMB 84   POPS C26  CTL2          -0.18        12.011       0
   23232 MEMB 84   POPS H6R  HAL2           0.09         1.008       0
   23233 MEMB 84   POPS H6S  HAL2           0.09         1.008       0
   23234 MEMB 84   POPS C27  CTL2          -0.18        12.011       0
   23235 MEMB 84   POPS H7R  HAL2           0.09         1.008       0
   23236 MEMB 84   POPS H7S  HAL2           0.09         1.008       0
   23237 MEMB 84   POPS C28  CTL2          -0.18        12.011       0
   23238 MEMB 84   POPS H8R  HAL2           0.09         1.008       0
   23239 MEMB 84   POPS H8S  HAL2           0.09         1.008       0
   23240 MEMB 84   POPS C29  CEL1          -0.15        12.011       0
   23241 MEMB 84   POPS H91  HEL1           0.15         1.008       0
   23242 MEMB 84   POPS C210 CEL1          -0.15        12.011       0
   23243 MEMB 84   POPS H101 HEL1           0.15         1.008       0
   23244 MEMB 84   POPS C211 CTL2          -0.18        12.011       0
   23245 MEMB 84   POPS H11R HAL2           0.09         1.008       0
   23246 MEMB 84   POPS H11S HAL2           0.09         1.008       0
   23247 MEMB 84   POPS C212 CTL2          -0.18        12.011       0
   23248 MEMB 84   POPS H12R HAL2           0.09         1.008       0
   23249 MEMB 84   POPS H12S HAL2           0.09         1.008       0
   23250 MEMB 84   POPS C213 CTL2          -0.18        12.011       0
   23251 MEMB 84   POPS H13R HAL2           0.09         1.008       0
   23252 MEMB 84   POPS H13S HAL2           0.09         1.008       0
   23253 MEMB 84   POPS C214 CTL2          -0.18        12.011       0
   23254 MEMB 84   POPS H14R HAL2           0.09         1.008       0
   23255 MEMB 84   POPS H14S HAL2           0.09         1.008       0
   23256 MEMB 84   POPS C215 CTL2          -0.18        12.011       0
   23257 MEMB 84   POPS H15R HAL2           0.09         1.008       0
   23258 MEMB 84   POPS H15S HAL2           0.09         1.008       0
   23259 MEMB 84   POPS C216 CTL2          -0.18        12.011       0
   23260 MEMB 84   POPS H16R HAL2           0.09         1.008       0
   23261 MEMB 84   POPS H16S HAL2           0.09         1.008       0
   23262 MEMB 84   POPS C217 CTL2          -0.18        12.011       0
   23263 MEMB 84   POPS H17R HAL2           0.09         1.008       0
   23264 MEMB 84   POPS H17S HAL2           0.09         1.008       0
   23265 MEMB 84   POPS C218 CTL3          -0.27        12.011       0
   23266 MEMB 84   POPS H18R HAL3           0.09         1.008       0
   23267 MEMB 84   POPS H18S HAL3           0.09         1.008       0
   23268 MEMB 84   POPS H18T HAL3           0.09         1.008       0
   23269 MEMB 84   POPS C33  CTL2          -0.18        12.011       0
   23270 MEMB 84   POPS H3X  HAL2           0.09         1.008       0
   23271 MEMB 84   POPS H3Y  HAL2           0.09         1.008       0
   23272 MEMB 84   POPS C34  CTL2          -0.18        12.011       0
   23273 MEMB 84   POPS H4X  HAL2           0.09         1.008       0
   23274 MEMB 84   POPS H4Y  HAL2           0.09         1.008       0
   23275 MEMB 84   POPS C35  CTL2          -0.18        12.011       0
   23276 MEMB 84   POPS H5X  HAL2           0.09         1.008       0
   23277 MEMB 84   POPS H5Y  HAL2           0.09         1.008       0
   23278 MEMB 84   POPS C36  CTL2          -0.18        12.011       0
   23279 MEMB 84   POPS H6X  HAL2           0.09         1.008       0
   23280 MEMB 84   POPS H6Y  HAL2           0.09         1.008       0
   23281 MEMB 84   POPS C37  CTL2          -0.18        12.011       0
   23282 MEMB 84   POPS H7X  HAL2           0.09         1.008       0
   23283 MEMB 84   POPS H7Y  HAL2           0.09         1.008       0
   23284 MEMB 84   POPS C38  CTL2          -0.18        12.011       0
   23285 MEMB 84   POPS H8X  HAL2           0.09         1.008       0
   23286 MEMB 84   POPS H8Y  HAL2           0.09         1.008       0
   23287 MEMB 84   POPS C39  CTL2          -0.18        12.011       0
   23288 MEMB 84   POPS H9X  HAL2           0.09         1.008       0
   23289 MEMB 84   POPS H9Y  HAL2           0.09         1.008       0
   23290 MEMB 84   POPS C310 CTL2          -0.18        12.011       0
   23291 MEMB 84   POPS H10X HAL2           0.09         1.008       0
   23292 MEMB 84   POPS H10Y HAL2           0.09         1.008       0
   23293 MEMB 84   POPS C311 CTL2          -0.18        12.011       0
   23294 MEMB 84   POPS H11X HAL2           0.09         1.008       0
   23295 MEMB 84   POPS H11Y HAL2           0.09         1.008       0
   23296 MEMB 84   POPS C312 CTL2          -0.18        12.011       0
   23297 MEMB 84   POPS H12X HAL2           0.09         1.008       0
   23298 MEMB 84   POPS H12Y HAL2           0.09         1.008       0
   23299 MEMB 84   POPS C313 CTL2          -0.18        12.011       0
   23300 MEMB 84   POPS H13X HAL2           0.09         1.008       0
   23301 MEMB 84   POPS H13Y HAL2           0.09         1.008       0
   23302 MEMB 84   POPS C314 CTL2          -0.18        12.011       0
   23303 MEMB 84   POPS H14X HAL2           0.09         1.008       0
   23304 MEMB 84   POPS H14Y HAL2           0.09         1.008       0
   23305 MEMB 84   POPS C315 CTL2          -0.18        12.011       0
   23306 MEMB 84   POPS H15X HAL2           0.09         1.008       0
   23307 MEMB 84   POPS H15Y HAL2           0.09         1.008       0
   23308 MEMB 84   POPS C316 CTL3          -0.27        12.011       0
   23309 MEMB 84   POPS H16X HAL3           0.09         1.008       0
   23310 MEMB 84   POPS H16Y HAL3           0.09         1.008       0
   23311 MEMB 84   POPS H16Z HAL3           0.09         1.008       0
   23312 MEMB 85   POPS N    NH3L           -0.3        14.007       0
   23313 MEMB 85   POPS HN1  HCL            0.33         1.008       0
   23314 MEMB 85   POPS HN2  HCL            0.33         1.008       0
   23315 MEMB 85   POPS HN3  HCL            0.33         1.008       0
   23316 MEMB 85   POPS C12  CTL1           0.21        12.011       0
   23317 MEMB 85   POPS H12A HBL             0.1         1.008       0
   23318 MEMB 85   POPS C13  CCL            0.34        12.011       0
   23319 MEMB 85   POPS O13A OCL           -0.67       15.9994       0
   23320 MEMB 85   POPS O13B OCL           -0.67       15.9994       0
   23321 MEMB 85   POPS C11  CTL2          -0.08        12.011       0
   23322 MEMB 85   POPS H11A HAL2           0.09         1.008       0
   23323 MEMB 85   POPS H11B HAL2           0.09         1.008       0
   23324 MEMB 85   POPS P    PL              1.5        30.974       0
   23325 MEMB 85   POPS O13  O2L           -0.78       15.9994       0
   23326 MEMB 85   POPS O14  O2L           -0.78       15.9994       0
   23327 MEMB 85   POPS O12  OSLP          -0.57       15.9994       0
   23328 MEMB 85   POPS O11  OSLP          -0.57       15.9994       0
   23329 MEMB 85   POPS C1   CTL2          -0.08        12.011       0
   23330 MEMB 85   POPS HA   HAL2           0.09         1.008       0
   23331 MEMB 85   POPS HB   HAL2           0.09         1.008       0
   23332 MEMB 85   POPS C2   CTL1           0.17        12.011       0
   23333 MEMB 85   POPS HS   HAL1           0.09         1.008       0
   23334 MEMB 85   POPS O21  OSL           -0.49       15.9994       0
   23335 MEMB 85   POPS C21  CL              0.9        12.011       0
   23336 MEMB 85   POPS O22  OBL           -0.63       15.9994       0
   23337 MEMB 85   POPS C22  CTL2          -0.22        12.011       0
   23338 MEMB 85   POPS H2R  HAL2           0.09         1.008       0
   23339 MEMB 85   POPS H2S  HAL2           0.09         1.008       0
   23340 MEMB 85   POPS C3   CTL2           0.08        12.011       0
   23341 MEMB 85   POPS HX   HAL2           0.09         1.008       0
   23342 MEMB 85   POPS HY   HAL2           0.09         1.008       0
   23343 MEMB 85   POPS O31  OSL           -0.49       15.9994       0
   23344 MEMB 85   POPS C31  CL              0.9        12.011       0
   23345 MEMB 85   POPS O32  OBL           -0.63       15.9994       0
   23346 MEMB 85   POPS C32  CTL2          -0.22        12.011       0
   23347 MEMB 85   POPS H2X  HAL2           0.09         1.008       0
   23348 MEMB 85   POPS H2Y  HAL2           0.09         1.008       0
   23349 MEMB 85   POPS C23  CTL2          -0.18        12.011       0
   23350 MEMB 85   POPS H3R  HAL2           0.09         1.008       0
   23351 MEMB 85   POPS H3S  HAL2           0.09         1.008       0
   23352 MEMB 85   POPS C24  CTL2          -0.18        12.011       0
   23353 MEMB 85   POPS H4R  HAL2           0.09         1.008       0
   23354 MEMB 85   POPS H4S  HAL2           0.09         1.008       0
   23355 MEMB 85   POPS C25  CTL2          -0.18        12.011       0
   23356 MEMB 85   POPS H5R  HAL2           0.09         1.008       0
   23357 MEMB 85   POPS H5S  HAL2           0.09         1.008       0
   23358 MEMB 85   POPS C26  CTL2          -0.18        12.011       0
   23359 MEMB 85   POPS H6R  HAL2           0.09         1.008       0
   23360 MEMB 85   POPS H6S  HAL2           0.09         1.008       0
   23361 MEMB 85   POPS C27  CTL2          -0.18        12.011       0
   23362 MEMB 85   POPS H7R  HAL2           0.09         1.008       0
   23363 MEMB 85   POPS H7S  HAL2           0.09         1.008       0
   23364 MEMB 85   POPS C28  CTL2          -0.18        12.011       0
   23365 MEMB 85   POPS H8R  HAL2           0.09         1.008       0
   23366 MEMB 85   POPS H8S  HAL2           0.09         1.008       0
   23367 MEMB 85   POPS C29  CEL1          -0.15        12.011       0
   23368 MEMB 85   POPS H91  HEL1           0.15         1.008       0
   23369 MEMB 85   POPS C210 CEL1          -0.15        12.011       0
   23370 MEMB 85   POPS H101 HEL1           0.15         1.008       0
   23371 MEMB 85   POPS C211 CTL2          -0.18        12.011       0
   23372 MEMB 85   POPS H11R HAL2           0.09         1.008       0
   23373 MEMB 85   POPS H11S HAL2           0.09         1.008       0
   23374 MEMB 85   POPS C212 CTL2          -0.18        12.011       0
   23375 MEMB 85   POPS H12R HAL2           0.09         1.008       0
   23376 MEMB 85   POPS H12S HAL2           0.09         1.008       0
   23377 MEMB 85   POPS C213 CTL2          -0.18        12.011       0
   23378 MEMB 85   POPS H13R HAL2           0.09         1.008       0
   23379 MEMB 85   POPS H13S HAL2           0.09         1.008       0
   23380 MEMB 85   POPS C214 CTL2          -0.18        12.011       0
   23381 MEMB 85   POPS H14R HAL2           0.09         1.008       0
   23382 MEMB 85   POPS H14S HAL2           0.09         1.008       0
   23383 MEMB 85   POPS C215 CTL2          -0.18        12.011       0
   23384 MEMB 85   POPS H15R HAL2           0.09         1.008       0
   23385 MEMB 85   POPS H15S HAL2           0.09         1.008       0
   23386 MEMB 85   POPS C216 CTL2          -0.18        12.011       0
   23387 MEMB 85   POPS H16R HAL2           0.09         1.008       0
   23388 MEMB 85   POPS H16S HAL2           0.09         1.008       0
   23389 MEMB 85   POPS C217 CTL2          -0.18        12.011       0
   23390 MEMB 85   POPS H17R HAL2           0.09         1.008       0
   23391 MEMB 85   POPS H17S HAL2           0.09         1.008       0
   23392 MEMB 85   POPS C218 CTL3          -0.27        12.011       0
   23393 MEMB 85   POPS H18R HAL3           0.09         1.008       0
   23394 MEMB 85   POPS H18S HAL3           0.09         1.008       0
   23395 MEMB 85   POPS H18T HAL3           0.09         1.008       0
   23396 MEMB 85   POPS C33  CTL2          -0.18        12.011       0
   23397 MEMB 85   POPS H3X  HAL2           0.09         1.008       0
   23398 MEMB 85   POPS H3Y  HAL2           0.09         1.008       0
   23399 MEMB 85   POPS C34  CTL2          -0.18        12.011       0
   23400 MEMB 85   POPS H4X  HAL2           0.09         1.008       0
   23401 MEMB 85   POPS H4Y  HAL2           0.09         1.008       0
   23402 MEMB 85   POPS C35  CTL2          -0.18        12.011       0
   23403 MEMB 85   POPS H5X  HAL2           0.09         1.008       0
   23404 MEMB 85   POPS H5Y  HAL2           0.09         1.008       0
   23405 MEMB 85   POPS C36  CTL2          -0.18        12.011       0
   23406 MEMB 85   POPS H6X  HAL2           0.09         1.008       0
   23407 MEMB 85   POPS H6Y  HAL2           0.09         1.008       0
   23408 MEMB 85   POPS C37  CTL2          -0.18        12.011       0
   23409 MEMB 85   POPS H7X  HAL2           0.09         1.008       0
   23410 MEMB 85   POPS H7Y  HAL2           0.09         1.008       0
   23411 MEMB 85   POPS C38  CTL2          -0.18        12.011       0
   23412 MEMB 85   POPS H8X  HAL2           0.09         1.008       0
   23413 MEMB 85   POPS H8Y  HAL2           0.09         1.008       0
   23414 MEMB 85   POPS C39  CTL2          -0.18        12.011       0
   23415 MEMB 85   POPS H9X  HAL2           0.09         1.008       0
   23416 MEMB 85   POPS H9Y  HAL2           0.09         1.008       0
   23417 MEMB 85   POPS C310 CTL2          -0.18        12.011       0
   23418 MEMB 85   POPS H10X HAL2           0.09         1.008       0
   23419 MEMB 85   POPS H10Y HAL2           0.09         1.008       0
   23420 MEMB 85   POPS C311 CTL2          -0.18        12.011       0
   23421 MEMB 85   POPS H11X HAL2           0.09         1.008       0
   23422 MEMB 85   POPS H11Y HAL2           0.09         1.008       0
   23423 MEMB 85   POPS C312 CTL2          -0.18        12.011       0
   23424 MEMB 85   POPS H12X HAL2           0.09         1.008       0
   23425 MEMB 85   POPS H12Y HAL2           0.09         1.008       0
   23426 MEMB 85   POPS C313 CTL2          -0.18        12.011       0
   23427 MEMB 85   POPS H13X HAL2           0.09         1.008       0
   23428 MEMB 85   POPS H13Y HAL2           0.09         1.008       0
   23429 MEMB 85   POPS C314 CTL2          -0.18        12.011       0
   23430 MEMB 85   POPS H14X HAL2           0.09         1.008       0
   23431 MEMB 85   POPS H14Y HAL2           0.09         1.008       0
   23432 MEMB 85   POPS C315 CTL2          -0.18        12.011       0
   23433 MEMB 85   POPS H15X HAL2           0.09         1.008       0
   23434 MEMB 85   POPS H15Y HAL2           0.09         1.008       0
   23435 MEMB 85   POPS C316 CTL3          -0.27        12.011       0
   23436 MEMB 85   POPS H16X HAL3           0.09         1.008       0
   23437 MEMB 85   POPS H16Y HAL3           0.09         1.008       0
   23438 MEMB 85   POPS H16Z HAL3           0.09         1.008       0
   23439 MEMB 86   POPC N    NTL            -0.6        14.007       0
   23440 MEMB 86   POPC C12  CTL2           -0.1        12.011       0
   23441 MEMB 86   POPC H12A HL             0.25         1.008       0
   23442 MEMB 86   POPC H12B HL             0.25         1.008       0
   23443 MEMB 86   POPC C13  CTL5          -0.35        12.011       0
   23444 MEMB 86   POPC H13A HL             0.25         1.008       0
   23445 MEMB 86   POPC H13B HL             0.25         1.008       0
   23446 MEMB 86   POPC H13C HL             0.25         1.008       0
   23447 MEMB 86   POPC C14  CTL5          -0.35        12.011       0
   23448 MEMB 86   POPC H14A HL             0.25         1.008       0
   23449 MEMB 86   POPC H14B HL             0.25         1.008       0
   23450 MEMB 86   POPC H14C HL             0.25         1.008       0
   23451 MEMB 86   POPC C15  CTL5          -0.35        12.011       0
   23452 MEMB 86   POPC H15A HL             0.25         1.008       0
   23453 MEMB 86   POPC H15B HL             0.25         1.008       0
   23454 MEMB 86   POPC H15C HL             0.25         1.008       0
   23455 MEMB 86   POPC C11  CTL2          -0.08        12.011       0
   23456 MEMB 86   POPC H11A HAL2           0.09         1.008       0
   23457 MEMB 86   POPC H11B HAL2           0.09         1.008       0
   23458 MEMB 86   POPC P    PL              1.5        30.974       0
   23459 MEMB 86   POPC O13  O2L           -0.78       15.9994       0
   23460 MEMB 86   POPC O14  O2L           -0.78       15.9994       0
   23461 MEMB 86   POPC O12  OSLP          -0.57       15.9994       0
   23462 MEMB 86   POPC O11  OSLP          -0.57       15.9994       0
   23463 MEMB 86   POPC C1   CTL2          -0.08        12.011       0
   23464 MEMB 86   POPC HA   HAL2           0.09         1.008       0
   23465 MEMB 86   POPC HB   HAL2           0.09         1.008       0
   23466 MEMB 86   POPC C2   CTL1           0.17        12.011       0
   23467 MEMB 86   POPC HS   HAL1           0.09         1.008       0
   23468 MEMB 86   POPC O21  OSL           -0.49       15.9994       0
   23469 MEMB 86   POPC C21  CL              0.9        12.011       0
   23470 MEMB 86   POPC O22  OBL           -0.63       15.9994       0
   23471 MEMB 86   POPC C22  CTL2          -0.22        12.011       0
   23472 MEMB 86   POPC H2R  HAL2           0.09         1.008       0
   23473 MEMB 86   POPC H2S  HAL2           0.09         1.008       0
   23474 MEMB 86   POPC C3   CTL2           0.08        12.011       0
   23475 MEMB 86   POPC HX   HAL2           0.09         1.008       0
   23476 MEMB 86   POPC HY   HAL2           0.09         1.008       0
   23477 MEMB 86   POPC O31  OSL           -0.49       15.9994       0
   23478 MEMB 86   POPC C31  CL              0.9        12.011       0
   23479 MEMB 86   POPC O32  OBL           -0.63       15.9994       0
   23480 MEMB 86   POPC C32  CTL2          -0.22        12.011       0
   23481 MEMB 86   POPC H2X  HAL2           0.09         1.008       0
   23482 MEMB 86   POPC H2Y  HAL2           0.09         1.008       0
   23483 MEMB 86   POPC C23  CTL2          -0.18        12.011       0
   23484 MEMB 86   POPC H3R  HAL2           0.09         1.008       0
   23485 MEMB 86   POPC H3S  HAL2           0.09         1.008       0
   23486 MEMB 86   POPC C24  CTL2          -0.18        12.011       0
   23487 MEMB 86   POPC H4R  HAL2           0.09         1.008       0
   23488 MEMB 86   POPC H4S  HAL2           0.09         1.008       0
   23489 MEMB 86   POPC C25  CTL2          -0.18        12.011       0
   23490 MEMB 86   POPC H5R  HAL2           0.09         1.008       0
   23491 MEMB 86   POPC H5S  HAL2           0.09         1.008       0
   23492 MEMB 86   POPC C26  CTL2          -0.18        12.011       0
   23493 MEMB 86   POPC H6R  HAL2           0.09         1.008       0
   23494 MEMB 86   POPC H6S  HAL2           0.09         1.008       0
   23495 MEMB 86   POPC C27  CTL2          -0.18        12.011       0
   23496 MEMB 86   POPC H7R  HAL2           0.09         1.008       0
   23497 MEMB 86   POPC H7S  HAL2           0.09         1.008       0
   23498 MEMB 86   POPC C28  CTL2          -0.18        12.011       0
   23499 MEMB 86   POPC H8R  HAL2           0.09         1.008       0
   23500 MEMB 86   POPC H8S  HAL2           0.09         1.008       0
   23501 MEMB 86   POPC C29  CEL1          -0.15        12.011       0
   23502 MEMB 86   POPC H91  HEL1           0.15         1.008       0
   23503 MEMB 86   POPC C210 CEL1          -0.15        12.011       0
   23504 MEMB 86   POPC H101 HEL1           0.15         1.008       0
   23505 MEMB 86   POPC C211 CTL2          -0.18        12.011       0
   23506 MEMB 86   POPC H11R HAL2           0.09         1.008       0
   23507 MEMB 86   POPC H11S HAL2           0.09         1.008       0
   23508 MEMB 86   POPC C212 CTL2          -0.18        12.011       0
   23509 MEMB 86   POPC H12R HAL2           0.09         1.008       0
   23510 MEMB 86   POPC H12S HAL2           0.09         1.008       0
   23511 MEMB 86   POPC C213 CTL2          -0.18        12.011       0
   23512 MEMB 86   POPC H13R HAL2           0.09         1.008       0
   23513 MEMB 86   POPC H13S HAL2           0.09         1.008       0
   23514 MEMB 86   POPC C214 CTL2          -0.18        12.011       0
   23515 MEMB 86   POPC H14R HAL2           0.09         1.008       0
   23516 MEMB 86   POPC H14S HAL2           0.09         1.008       0
   23517 MEMB 86   POPC C215 CTL2          -0.18        12.011       0
   23518 MEMB 86   POPC H15R HAL2           0.09         1.008       0
   23519 MEMB 86   POPC H15S HAL2           0.09         1.008       0
   23520 MEMB 86   POPC C216 CTL2          -0.18        12.011       0
   23521 MEMB 86   POPC H16R HAL2           0.09         1.008       0
   23522 MEMB 86   POPC H16S HAL2           0.09         1.008       0
   23523 MEMB 86   POPC C217 CTL2          -0.18        12.011       0
   23524 MEMB 86   POPC H17R HAL2           0.09         1.008       0
   23525 MEMB 86   POPC H17S HAL2           0.09         1.008       0
   23526 MEMB 86   POPC C218 CTL3          -0.27        12.011       0
   23527 MEMB 86   POPC H18R HAL3           0.09         1.008       0
   23528 MEMB 86   POPC H18S HAL3           0.09         1.008       0
   23529 MEMB 86   POPC H18T HAL3           0.09         1.008       0
   23530 MEMB 86   POPC C33  CTL2          -0.18        12.011       0
   23531 MEMB 86   POPC H3X  HAL2           0.09         1.008       0
   23532 MEMB 86   POPC H3Y  HAL2           0.09         1.008       0
   23533 MEMB 86   POPC C34  CTL2          -0.18        12.011       0
   23534 MEMB 86   POPC H4X  HAL2           0.09         1.008       0
   23535 MEMB 86   POPC H4Y  HAL2           0.09         1.008       0
   23536 MEMB 86   POPC C35  CTL2          -0.18        12.011       0
   23537 MEMB 86   POPC H5X  HAL2           0.09         1.008       0
   23538 MEMB 86   POPC H5Y  HAL2           0.09         1.008       0
   23539 MEMB 86   POPC C36  CTL2          -0.18        12.011       0
   23540 MEMB 86   POPC H6X  HAL2           0.09         1.008       0
   23541 MEMB 86   POPC H6Y  HAL2           0.09         1.008       0
   23542 MEMB 86   POPC C37  CTL2          -0.18        12.011       0
   23543 MEMB 86   POPC H7X  HAL2           0.09         1.008       0
   23544 MEMB 86   POPC H7Y  HAL2           0.09         1.008       0
   23545 MEMB 86   POPC C38  CTL2          -0.18        12.011       0
   23546 MEMB 86   POPC H8X  HAL2           0.09         1.008       0
   23547 MEMB 86   POPC H8Y  HAL2           0.09         1.008       0
   23548 MEMB 86   POPC C39  CTL2          -0.18        12.011       0
   23549 MEMB 86   POPC H9X  HAL2           0.09         1.008       0
   23550 MEMB 86   POPC H9Y  HAL2           0.09         1.008       0
   23551 MEMB 86   POPC C310 CTL2          -0.18        12.011       0
   23552 MEMB 86   POPC H10X HAL2           0.09         1.008       0
   23553 MEMB 86   POPC H10Y HAL2           0.09         1.008       0
   23554 MEMB 86   POPC C311 CTL2          -0.18        12.011       0
   23555 MEMB 86   POPC H11X HAL2           0.09         1.008       0
   23556 MEMB 86   POPC H11Y HAL2           0.09         1.008       0
   23557 MEMB 86   POPC C312 CTL2          -0.18        12.011       0
   23558 MEMB 86   POPC H12X HAL2           0.09         1.008       0
   23559 MEMB 86   POPC H12Y HAL2           0.09         1.008       0
   23560 MEMB 86   POPC C313 CTL2          -0.18        12.011       0
   23561 MEMB 86   POPC H13X HAL2           0.09         1.008       0
   23562 MEMB 86   POPC H13Y HAL2           0.09         1.008       0
   23563 MEMB 86   POPC C314 CTL2          -0.18        12.011       0
   23564 MEMB 86   POPC H14X HAL2           0.09         1.008       0
   23565 MEMB 86   POPC H14Y HAL2           0.09         1.008       0
   23566 MEMB 86   POPC C315 CTL2          -0.18        12.011       0
   23567 MEMB 86   POPC H15X HAL2           0.09         1.008       0
   23568 MEMB 86   POPC H15Y HAL2           0.09         1.008       0
   23569 MEMB 86   POPC C316 CTL3          -0.27        12.011       0
   23570 MEMB 86   POPC H16X HAL3           0.09         1.008       0
   23571 MEMB 86   POPC H16Y HAL3           0.09         1.008       0
   23572 MEMB 86   POPC H16Z HAL3           0.09         1.008       0
   23573 MEMB 87   PSM  N    NTL            -0.6        14.007       0
   23574 MEMB 87   PSM  C15  CTL5          -0.35        12.011       0
   23575 MEMB 87   PSM  H15A HL             0.25         1.008       0
   23576 MEMB 87   PSM  H15B HL             0.25         1.008       0
   23577 MEMB 87   PSM  H15C HL             0.25         1.008       0
   23578 MEMB 87   PSM  C14  CTL5          -0.35        12.011       0
   23579 MEMB 87   PSM  H14A HL             0.25         1.008       0
   23580 MEMB 87   PSM  H14B HL             0.25         1.008       0
   23581 MEMB 87   PSM  H14C HL             0.25         1.008       0
   23582 MEMB 87   PSM  C13  CTL5          -0.35        12.011       0
   23583 MEMB 87   PSM  H13A HL             0.25         1.008       0
   23584 MEMB 87   PSM  H13B HL             0.25         1.008       0
   23585 MEMB 87   PSM  H13C HL             0.25         1.008       0
   23586 MEMB 87   PSM  C12  CTL2           -0.1        12.011       0
   23587 MEMB 87   PSM  H12A HL             0.25         1.008       0
   23588 MEMB 87   PSM  H12B HL             0.25         1.008       0
   23589 MEMB 87   PSM  C11  CTL2          -0.08        12.011       0
   23590 MEMB 87   PSM  H11A HAL2           0.09         1.008       0
   23591 MEMB 87   PSM  H11B HAL2           0.09         1.008       0
   23592 MEMB 87   PSM  P    PL              1.5        30.974       0
   23593 MEMB 87   PSM  O13  O2L           -0.78       15.9994       0
   23594 MEMB 87   PSM  O14  O2L           -0.78       15.9994       0
   23595 MEMB 87   PSM  O11  OSLP          -0.57       15.9994       0
   23596 MEMB 87   PSM  O12  OSLP          -0.57       15.9994       0
   23597 MEMB 87   PSM  C1S  CTL2          -0.08        12.011       0
   23598 MEMB 87   PSM  H1S  HAL2           0.09         1.008       0
   23599 MEMB 87   PSM  H1T  HAL2           0.09         1.008       0
   23600 MEMB 87   PSM  NF   NHL            -0.7        14.007       0
   23601 MEMB 87   PSM  HNF  H              0.35         1.008       0
   23602 MEMB 87   PSM  C2S  CTL1            0.3        12.011       0
   23603 MEMB 87   PSM  H2S  HAL1           0.05         1.008       0
   23604 MEMB 87   PSM  C3S  CTO1            0.5        12.011       0
   23605 MEMB 87   PSM  H3S  HAL1          -0.11         1.008       0
   23606 MEMB 87   PSM  O3   OHL           -0.69       15.9994       0
   23607 MEMB 87   PSM  HO3  HOL             0.3         1.008       0
   23608 MEMB 87   PSM  C4S  CEL3          -0.15        12.011       0
   23609 MEMB 87   PSM  H4S  HEL1           0.15         1.008       0
   23610 MEMB 87   PSM  C5S  CEL3          -0.15        12.011       0
   23611 MEMB 87   PSM  H5S  HEL1           0.15         1.008       0
   23612 MEMB 87   PSM  C6S  CTL2          -0.18        12.011       0
   23613 MEMB 87   PSM  H6S  HAL2           0.09         1.008       0
   23614 MEMB 87   PSM  H6T  HAL2           0.09         1.008       0
   23615 MEMB 87   PSM  C7S  CTL2          -0.18        12.011       0
   23616 MEMB 87   PSM  H7S  HAL2           0.09         1.008       0
   23617 MEMB 87   PSM  H7T  HAL2           0.09         1.008       0
   23618 MEMB 87   PSM  C8S  CTL2          -0.18        12.011       0
   23619 MEMB 87   PSM  H8S  HAL2           0.09         1.008       0
   23620 MEMB 87   PSM  H8T  HAL2           0.09         1.008       0
   23621 MEMB 87   PSM  C9S  CTL2          -0.18        12.011       0
   23622 MEMB 87   PSM  H9S  HAL2           0.09         1.008       0
   23623 MEMB 87   PSM  H9T  HAL2           0.09         1.008       0
   23624 MEMB 87   PSM  C10S CTL2          -0.18        12.011       0
   23625 MEMB 87   PSM  H10S HAL2           0.09         1.008       0
   23626 MEMB 87   PSM  H10T HAL2           0.09         1.008       0
   23627 MEMB 87   PSM  C11S CTL2          -0.18        12.011       0
   23628 MEMB 87   PSM  H11S HAL2           0.09         1.008       0
   23629 MEMB 87   PSM  H11T HAL2           0.09         1.008       0
   23630 MEMB 87   PSM  C12S CTL2          -0.18        12.011       0
   23631 MEMB 87   PSM  H12S HAL2           0.09         1.008       0
   23632 MEMB 87   PSM  H12T HAL2           0.09         1.008       0
   23633 MEMB 87   PSM  C13S CTL2          -0.18        12.011       0
   23634 MEMB 87   PSM  H13S HAL2           0.09         1.008       0
   23635 MEMB 87   PSM  H13T HAL2           0.09         1.008       0
   23636 MEMB 87   PSM  C14S CTL2          -0.18        12.011       0
   23637 MEMB 87   PSM  H14S HAL2           0.09         1.008       0
   23638 MEMB 87   PSM  H14T HAL2           0.09         1.008       0
   23639 MEMB 87   PSM  C15S CTL2          -0.18        12.011       0
   23640 MEMB 87   PSM  H15S HAL2           0.09         1.008       0
   23641 MEMB 87   PSM  H15T HAL2           0.09         1.008       0
   23642 MEMB 87   PSM  C16S CTL2          -0.18        12.011       0
   23643 MEMB 87   PSM  H16S HAL2           0.09         1.008       0
   23644 MEMB 87   PSM  H16T HAL2           0.09         1.008       0
   23645 MEMB 87   PSM  C17S CTL2          -0.18        12.011       0
   23646 MEMB 87   PSM  H17S HAL2           0.09         1.008       0
   23647 MEMB 87   PSM  H17T HAL2           0.09         1.008       0
   23648 MEMB 87   PSM  C18S CTL3          -0.27        12.011       0
   23649 MEMB 87   PSM  H18S HAL3           0.09         1.008       0
   23650 MEMB 87   PSM  H18T HAL3           0.09         1.008       0
   23651 MEMB 87   PSM  H18U HAL3           0.09         1.008       0
   23652 MEMB 87   PSM  C1F  C              0.55        12.011       0
   23653 MEMB 87   PSM  OF   O              -0.6        15.999       0
   23654 MEMB 87   PSM  C2F  CTL2          -0.07        12.011       0
   23655 MEMB 87   PSM  H2F  HAL2           0.06         1.008       0
   23656 MEMB 87   PSM  H2G  HAL2           0.06         1.008       0
   23657 MEMB 87   PSM  C3F  CTL2          -0.18        12.011       0
   23658 MEMB 87   PSM  H3F  HAL2           0.09         1.008       0
   23659 MEMB 87   PSM  H3G  HAL2           0.09         1.008       0
   23660 MEMB 87   PSM  C4F  CTL2          -0.18        12.011       0
   23661 MEMB 87   PSM  H4F  HAL2           0.09         1.008       0
   23662 MEMB 87   PSM  H4G  HAL2           0.09         1.008       0
   23663 MEMB 87   PSM  C5F  CTL2          -0.18        12.011       0
   23664 MEMB 87   PSM  H5F  HAL2           0.09         1.008       0
   23665 MEMB 87   PSM  H5G  HAL2           0.09         1.008       0
   23666 MEMB 87   PSM  C6F  CTL2          -0.18        12.011       0
   23667 MEMB 87   PSM  H6F  HAL2           0.09         1.008       0
   23668 MEMB 87   PSM  H6G  HAL2           0.09         1.008       0
   23669 MEMB 87   PSM  C7F  CTL2          -0.18        12.011       0
   23670 MEMB 87   PSM  H7F  HAL2           0.09         1.008       0
   23671 MEMB 87   PSM  H7G  HAL2           0.09         1.008       0
   23672 MEMB 87   PSM  C8F  CTL2          -0.18        12.011       0
   23673 MEMB 87   PSM  H8F  HAL2           0.09         1.008       0
   23674 MEMB 87   PSM  H8G  HAL2           0.09         1.008       0
   23675 MEMB 87   PSM  C9F  CTL2          -0.18        12.011       0
   23676 MEMB 87   PSM  H9F  HAL2           0.09         1.008       0
   23677 MEMB 87   PSM  H9G  HAL2           0.09         1.008       0
   23678 MEMB 87   PSM  C10F CTL2          -0.18        12.011       0
   23679 MEMB 87   PSM  H10F HAL2           0.09         1.008       0
   23680 MEMB 87   PSM  H10G HAL2           0.09         1.008       0
   23681 MEMB 87   PSM  C11F CTL2          -0.18        12.011       0
   23682 MEMB 87   PSM  H11F HAL2           0.09         1.008       0
   23683 MEMB 87   PSM  H11G HAL2           0.09         1.008       0
   23684 MEMB 87   PSM  C12F CTL2          -0.18        12.011       0
   23685 MEMB 87   PSM  H12F HAL2           0.09         1.008       0
   23686 MEMB 87   PSM  H12G HAL2           0.09         1.008       0
   23687 MEMB 87   PSM  C13F CTL2          -0.18        12.011       0
   23688 MEMB 87   PSM  H13F HAL2           0.09         1.008       0
   23689 MEMB 87   PSM  H13G HAL2           0.09         1.008       0
   23690 MEMB 87   PSM  C14F CTL2          -0.18        12.011       0
   23691 MEMB 87   PSM  H14F HAL2           0.09         1.008       0
   23692 MEMB 87   PSM  H14G HAL2           0.09         1.008       0
   23693 MEMB 87   PSM  C15F CTL2          -0.18        12.011       0
   23694 MEMB 87   PSM  H15F HAL2           0.09         1.008       0
   23695 MEMB 87   PSM  H15G HAL2           0.09         1.008       0
   23696 MEMB 87   PSM  C16F CTL3          -0.27        12.011       0
   23697 MEMB 87   PSM  H16F HAL3           0.09         1.008       0
   23698 MEMB 87   PSM  H16G HAL3           0.09         1.008       0
   23699 MEMB 87   PSM  H16H HAL3           0.09         1.008       0
   23700 MEMB 88   POPC N    NTL            -0.6        14.007       0
   23701 MEMB 88   POPC C12  CTL2           -0.1        12.011       0
   23702 MEMB 88   POPC H12A HL             0.25         1.008       0
   23703 MEMB 88   POPC H12B HL             0.25         1.008       0
   23704 MEMB 88   POPC C13  CTL5          -0.35        12.011       0
   23705 MEMB 88   POPC H13A HL             0.25         1.008       0
   23706 MEMB 88   POPC H13B HL             0.25         1.008       0
   23707 MEMB 88   POPC H13C HL             0.25         1.008       0
   23708 MEMB 88   POPC C14  CTL5          -0.35        12.011       0
   23709 MEMB 88   POPC H14A HL             0.25         1.008       0
   23710 MEMB 88   POPC H14B HL             0.25         1.008       0
   23711 MEMB 88   POPC H14C HL             0.25         1.008       0
   23712 MEMB 88   POPC C15  CTL5          -0.35        12.011       0
   23713 MEMB 88   POPC H15A HL             0.25         1.008       0
   23714 MEMB 88   POPC H15B HL             0.25         1.008       0
   23715 MEMB 88   POPC H15C HL             0.25         1.008       0
   23716 MEMB 88   POPC C11  CTL2          -0.08        12.011       0
   23717 MEMB 88   POPC H11A HAL2           0.09         1.008       0
   23718 MEMB 88   POPC H11B HAL2           0.09         1.008       0
   23719 MEMB 88   POPC P    PL              1.5        30.974       0
   23720 MEMB 88   POPC O13  O2L           -0.78       15.9994       0
   23721 MEMB 88   POPC O14  O2L           -0.78       15.9994       0
   23722 MEMB 88   POPC O12  OSLP          -0.57       15.9994       0
   23723 MEMB 88   POPC O11  OSLP          -0.57       15.9994       0
   23724 MEMB 88   POPC C1   CTL2          -0.08        12.011       0
   23725 MEMB 88   POPC HA   HAL2           0.09         1.008       0
   23726 MEMB 88   POPC HB   HAL2           0.09         1.008       0
   23727 MEMB 88   POPC C2   CTL1           0.17        12.011       0
   23728 MEMB 88   POPC HS   HAL1           0.09         1.008       0
   23729 MEMB 88   POPC O21  OSL           -0.49       15.9994       0
   23730 MEMB 88   POPC C21  CL              0.9        12.011       0
   23731 MEMB 88   POPC O22  OBL           -0.63       15.9994       0
   23732 MEMB 88   POPC C22  CTL2          -0.22        12.011       0
   23733 MEMB 88   POPC H2R  HAL2           0.09         1.008       0
   23734 MEMB 88   POPC H2S  HAL2           0.09         1.008       0
   23735 MEMB 88   POPC C3   CTL2           0.08        12.011       0
   23736 MEMB 88   POPC HX   HAL2           0.09         1.008       0
   23737 MEMB 88   POPC HY   HAL2           0.09         1.008       0
   23738 MEMB 88   POPC O31  OSL           -0.49       15.9994       0
   23739 MEMB 88   POPC C31  CL              0.9        12.011       0
   23740 MEMB 88   POPC O32  OBL           -0.63       15.9994       0
   23741 MEMB 88   POPC C32  CTL2          -0.22        12.011       0
   23742 MEMB 88   POPC H2X  HAL2           0.09         1.008       0
   23743 MEMB 88   POPC H2Y  HAL2           0.09         1.008       0
   23744 MEMB 88   POPC C23  CTL2          -0.18        12.011       0
   23745 MEMB 88   POPC H3R  HAL2           0.09         1.008       0
   23746 MEMB 88   POPC H3S  HAL2           0.09         1.008       0
   23747 MEMB 88   POPC C24  CTL2          -0.18        12.011       0
   23748 MEMB 88   POPC H4R  HAL2           0.09         1.008       0
   23749 MEMB 88   POPC H4S  HAL2           0.09         1.008       0
   23750 MEMB 88   POPC C25  CTL2          -0.18        12.011       0
   23751 MEMB 88   POPC H5R  HAL2           0.09         1.008       0
   23752 MEMB 88   POPC H5S  HAL2           0.09         1.008       0
   23753 MEMB 88   POPC C26  CTL2          -0.18        12.011       0
   23754 MEMB 88   POPC H6R  HAL2           0.09         1.008       0
   23755 MEMB 88   POPC H6S  HAL2           0.09         1.008       0
   23756 MEMB 88   POPC C27  CTL2          -0.18        12.011       0
   23757 MEMB 88   POPC H7R  HAL2           0.09         1.008       0
   23758 MEMB 88   POPC H7S  HAL2           0.09         1.008       0
   23759 MEMB 88   POPC C28  CTL2          -0.18        12.011       0
   23760 MEMB 88   POPC H8R  HAL2           0.09         1.008       0
   23761 MEMB 88   POPC H8S  HAL2           0.09         1.008       0
   23762 MEMB 88   POPC C29  CEL1          -0.15        12.011       0
   23763 MEMB 88   POPC H91  HEL1           0.15         1.008       0
   23764 MEMB 88   POPC C210 CEL1          -0.15        12.011       0
   23765 MEMB 88   POPC H101 HEL1           0.15         1.008       0
   23766 MEMB 88   POPC C211 CTL2          -0.18        12.011       0
   23767 MEMB 88   POPC H11R HAL2           0.09         1.008       0
   23768 MEMB 88   POPC H11S HAL2           0.09         1.008       0
   23769 MEMB 88   POPC C212 CTL2          -0.18        12.011       0
   23770 MEMB 88   POPC H12R HAL2           0.09         1.008       0
   23771 MEMB 88   POPC H12S HAL2           0.09         1.008       0
   23772 MEMB 88   POPC C213 CTL2          -0.18        12.011       0
   23773 MEMB 88   POPC H13R HAL2           0.09         1.008       0
   23774 MEMB 88   POPC H13S HAL2           0.09         1.008       0
   23775 MEMB 88   POPC C214 CTL2          -0.18        12.011       0
   23776 MEMB 88   POPC H14R HAL2           0.09         1.008       0
   23777 MEMB 88   POPC H14S HAL2           0.09         1.008       0
   23778 MEMB 88   POPC C215 CTL2          -0.18        12.011       0
   23779 MEMB 88   POPC H15R HAL2           0.09         1.008       0
   23780 MEMB 88   POPC H15S HAL2           0.09         1.008       0
   23781 MEMB 88   POPC C216 CTL2          -0.18        12.011       0
   23782 MEMB 88   POPC H16R HAL2           0.09         1.008       0
   23783 MEMB 88   POPC H16S HAL2           0.09         1.008       0
   23784 MEMB 88   POPC C217 CTL2          -0.18        12.011       0
   23785 MEMB 88   POPC H17R HAL2           0.09         1.008       0
   23786 MEMB 88   POPC H17S HAL2           0.09         1.008       0
   23787 MEMB 88   POPC C218 CTL3          -0.27        12.011       0
   23788 MEMB 88   POPC H18R HAL3           0.09         1.008       0
   23789 MEMB 88   POPC H18S HAL3           0.09         1.008       0
   23790 MEMB 88   POPC H18T HAL3           0.09         1.008       0
   23791 MEMB 88   POPC C33  CTL2          -0.18        12.011       0
   23792 MEMB 88   POPC H3X  HAL2           0.09         1.008       0
   23793 MEMB 88   POPC H3Y  HAL2           0.09         1.008       0
   23794 MEMB 88   POPC C34  CTL2          -0.18        12.011       0
   23795 MEMB 88   POPC H4X  HAL2           0.09         1.008       0
   23796 MEMB 88   POPC H4Y  HAL2           0.09         1.008       0
   23797 MEMB 88   POPC C35  CTL2          -0.18        12.011       0
   23798 MEMB 88   POPC H5X  HAL2           0.09         1.008       0
   23799 MEMB 88   POPC H5Y  HAL2           0.09         1.008       0
   23800 MEMB 88   POPC C36  CTL2          -0.18        12.011       0
   23801 MEMB 88   POPC H6X  HAL2           0.09         1.008       0
   23802 MEMB 88   POPC H6Y  HAL2           0.09         1.008       0
   23803 MEMB 88   POPC C37  CTL2          -0.18        12.011       0
   23804 MEMB 88   POPC H7X  HAL2           0.09         1.008       0
   23805 MEMB 88   POPC H7Y  HAL2           0.09         1.008       0
   23806 MEMB 88   POPC C38  CTL2          -0.18        12.011       0
   23807 MEMB 88   POPC H8X  HAL2           0.09         1.008       0
   23808 MEMB 88   POPC H8Y  HAL2           0.09         1.008       0
   23809 MEMB 88   POPC C39  CTL2          -0.18        12.011       0
   23810 MEMB 88   POPC H9X  HAL2           0.09         1.008       0
   23811 MEMB 88   POPC H9Y  HAL2           0.09         1.008       0
   23812 MEMB 88   POPC C310 CTL2          -0.18        12.011       0
   23813 MEMB 88   POPC H10X HAL2           0.09         1.008       0
   23814 MEMB 88   POPC H10Y HAL2           0.09         1.008       0
   23815 MEMB 88   POPC C311 CTL2          -0.18        12.011       0
   23816 MEMB 88   POPC H11X HAL2           0.09         1.008       0
   23817 MEMB 88   POPC H11Y HAL2           0.09         1.008       0
   23818 MEMB 88   POPC C312 CTL2          -0.18        12.011       0
   23819 MEMB 88   POPC H12X HAL2           0.09         1.008       0
   23820 MEMB 88   POPC H12Y HAL2           0.09         1.008       0
   23821 MEMB 88   POPC C313 CTL2          -0.18        12.011       0
   23822 MEMB 88   POPC H13X HAL2           0.09         1.008       0
   23823 MEMB 88   POPC H13Y HAL2           0.09         1.008       0
   23824 MEMB 88   POPC C314 CTL2          -0.18        12.011       0
   23825 MEMB 88   POPC H14X HAL2           0.09         1.008       0
   23826 MEMB 88   POPC H14Y HAL2           0.09         1.008       0
   23827 MEMB 88   POPC C315 CTL2          -0.18        12.011       0
   23828 MEMB 88   POPC H15X HAL2           0.09         1.008       0
   23829 MEMB 88   POPC H15Y HAL2           0.09         1.008       0
   23830 MEMB 88   POPC C316 CTL3          -0.27        12.011       0
   23831 MEMB 88   POPC H16X HAL3           0.09         1.008       0
   23832 MEMB 88   POPC H16Y HAL3           0.09         1.008       0
   23833 MEMB 88   POPC H16Z HAL3           0.09         1.008       0
   23834 MEMB 89   PSM  N    NTL            -0.6        14.007       0
   23835 MEMB 89   PSM  C15  CTL5          -0.35        12.011       0
   23836 MEMB 89   PSM  H15A HL             0.25         1.008       0
   23837 MEMB 89   PSM  H15B HL             0.25         1.008       0
   23838 MEMB 89   PSM  H15C HL             0.25         1.008       0
   23839 MEMB 89   PSM  C14  CTL5          -0.35        12.011       0
   23840 MEMB 89   PSM  H14A HL             0.25         1.008       0
   23841 MEMB 89   PSM  H14B HL             0.25         1.008       0
   23842 MEMB 89   PSM  H14C HL             0.25         1.008       0
   23843 MEMB 89   PSM  C13  CTL5          -0.35        12.011       0
   23844 MEMB 89   PSM  H13A HL             0.25         1.008       0
   23845 MEMB 89   PSM  H13B HL             0.25         1.008       0
   23846 MEMB 89   PSM  H13C HL             0.25         1.008       0
   23847 MEMB 89   PSM  C12  CTL2           -0.1        12.011       0
   23848 MEMB 89   PSM  H12A HL             0.25         1.008       0
   23849 MEMB 89   PSM  H12B HL             0.25         1.008       0
   23850 MEMB 89   PSM  C11  CTL2          -0.08        12.011       0
   23851 MEMB 89   PSM  H11A HAL2           0.09         1.008       0
   23852 MEMB 89   PSM  H11B HAL2           0.09         1.008       0
   23853 MEMB 89   PSM  P    PL              1.5        30.974       0
   23854 MEMB 89   PSM  O13  O2L           -0.78       15.9994       0
   23855 MEMB 89   PSM  O14  O2L           -0.78       15.9994       0
   23856 MEMB 89   PSM  O11  OSLP          -0.57       15.9994       0
   23857 MEMB 89   PSM  O12  OSLP          -0.57       15.9994       0
   23858 MEMB 89   PSM  C1S  CTL2          -0.08        12.011       0
   23859 MEMB 89   PSM  H1S  HAL2           0.09         1.008       0
   23860 MEMB 89   PSM  H1T  HAL2           0.09         1.008       0
   23861 MEMB 89   PSM  NF   NHL            -0.7        14.007       0
   23862 MEMB 89   PSM  HNF  H              0.35         1.008       0
   23863 MEMB 89   PSM  C2S  CTL1            0.3        12.011       0
   23864 MEMB 89   PSM  H2S  HAL1           0.05         1.008       0
   23865 MEMB 89   PSM  C3S  CTO1            0.5        12.011       0
   23866 MEMB 89   PSM  H3S  HAL1          -0.11         1.008       0
   23867 MEMB 89   PSM  O3   OHL           -0.69       15.9994       0
   23868 MEMB 89   PSM  HO3  HOL             0.3         1.008       0
   23869 MEMB 89   PSM  C4S  CEL3          -0.15        12.011       0
   23870 MEMB 89   PSM  H4S  HEL1           0.15         1.008       0
   23871 MEMB 89   PSM  C5S  CEL3          -0.15        12.011       0
   23872 MEMB 89   PSM  H5S  HEL1           0.15         1.008       0
   23873 MEMB 89   PSM  C6S  CTL2          -0.18        12.011       0
   23874 MEMB 89   PSM  H6S  HAL2           0.09         1.008       0
   23875 MEMB 89   PSM  H6T  HAL2           0.09         1.008       0
   23876 MEMB 89   PSM  C7S  CTL2          -0.18        12.011       0
   23877 MEMB 89   PSM  H7S  HAL2           0.09         1.008       0
   23878 MEMB 89   PSM  H7T  HAL2           0.09         1.008       0
   23879 MEMB 89   PSM  C8S  CTL2          -0.18        12.011       0
   23880 MEMB 89   PSM  H8S  HAL2           0.09         1.008       0
   23881 MEMB 89   PSM  H8T  HAL2           0.09         1.008       0
   23882 MEMB 89   PSM  C9S  CTL2          -0.18        12.011       0
   23883 MEMB 89   PSM  H9S  HAL2           0.09         1.008       0
   23884 MEMB 89   PSM  H9T  HAL2           0.09         1.008       0
   23885 MEMB 89   PSM  C10S CTL2          -0.18        12.011       0
   23886 MEMB 89   PSM  H10S HAL2           0.09         1.008       0
   23887 MEMB 89   PSM  H10T HAL2           0.09         1.008       0
   23888 MEMB 89   PSM  C11S CTL2          -0.18        12.011       0
   23889 MEMB 89   PSM  H11S HAL2           0.09         1.008       0
   23890 MEMB 89   PSM  H11T HAL2           0.09         1.008       0
   23891 MEMB 89   PSM  C12S CTL2          -0.18        12.011       0
   23892 MEMB 89   PSM  H12S HAL2           0.09         1.008       0
   23893 MEMB 89   PSM  H12T HAL2           0.09         1.008       0
   23894 MEMB 89   PSM  C13S CTL2          -0.18        12.011       0
   23895 MEMB 89   PSM  H13S HAL2           0.09         1.008       0
   23896 MEMB 89   PSM  H13T HAL2           0.09         1.008       0
   23897 MEMB 89   PSM  C14S CTL2          -0.18        12.011       0
   23898 MEMB 89   PSM  H14S HAL2           0.09         1.008       0
   23899 MEMB 89   PSM  H14T HAL2           0.09         1.008       0
   23900 MEMB 89   PSM  C15S CTL2          -0.18        12.011       0
   23901 MEMB 89   PSM  H15S HAL2           0.09         1.008       0
   23902 MEMB 89   PSM  H15T HAL2           0.09         1.008       0
   23903 MEMB 89   PSM  C16S CTL2          -0.18        12.011       0
   23904 MEMB 89   PSM  H16S HAL2           0.09         1.008       0
   23905 MEMB 89   PSM  H16T HAL2           0.09         1.008       0
   23906 MEMB 89   PSM  C17S CTL2          -0.18        12.011       0
   23907 MEMB 89   PSM  H17S HAL2           0.09         1.008       0
   23908 MEMB 89   PSM  H17T HAL2           0.09         1.008       0
   23909 MEMB 89   PSM  C18S CTL3          -0.27        12.011       0
   23910 MEMB 89   PSM  H18S HAL3           0.09         1.008       0
   23911 MEMB 89   PSM  H18T HAL3           0.09         1.008       0
   23912 MEMB 89   PSM  H18U HAL3           0.09         1.008       0
   23913 MEMB 89   PSM  C1F  C              0.55        12.011       0
   23914 MEMB 89   PSM  OF   O              -0.6        15.999       0
   23915 MEMB 89   PSM  C2F  CTL2          -0.07        12.011       0
   23916 MEMB 89   PSM  H2F  HAL2           0.06         1.008       0
   23917 MEMB 89   PSM  H2G  HAL2           0.06         1.008       0
   23918 MEMB 89   PSM  C3F  CTL2          -0.18        12.011       0
   23919 MEMB 89   PSM  H3F  HAL2           0.09         1.008       0
   23920 MEMB 89   PSM  H3G  HAL2           0.09         1.008       0
   23921 MEMB 89   PSM  C4F  CTL2          -0.18        12.011       0
   23922 MEMB 89   PSM  H4F  HAL2           0.09         1.008       0
   23923 MEMB 89   PSM  H4G  HAL2           0.09         1.008       0
   23924 MEMB 89   PSM  C5F  CTL2          -0.18        12.011       0
   23925 MEMB 89   PSM  H5F  HAL2           0.09         1.008       0
   23926 MEMB 89   PSM  H5G  HAL2           0.09         1.008       0
   23927 MEMB 89   PSM  C6F  CTL2          -0.18        12.011       0
   23928 MEMB 89   PSM  H6F  HAL2           0.09         1.008       0
   23929 MEMB 89   PSM  H6G  HAL2           0.09         1.008       0
   23930 MEMB 89   PSM  C7F  CTL2          -0.18        12.011       0
   23931 MEMB 89   PSM  H7F  HAL2           0.09         1.008       0
   23932 MEMB 89   PSM  H7G  HAL2           0.09         1.008       0
   23933 MEMB 89   PSM  C8F  CTL2          -0.18        12.011       0
   23934 MEMB 89   PSM  H8F  HAL2           0.09         1.008       0
   23935 MEMB 89   PSM  H8G  HAL2           0.09         1.008       0
   23936 MEMB 89   PSM  C9F  CTL2          -0.18        12.011       0
   23937 MEMB 89   PSM  H9F  HAL2           0.09         1.008       0
   23938 MEMB 89   PSM  H9G  HAL2           0.09         1.008       0
   23939 MEMB 89   PSM  C10F CTL2          -0.18        12.011       0
   23940 MEMB 89   PSM  H10F HAL2           0.09         1.008       0
   23941 MEMB 89   PSM  H10G HAL2           0.09         1.008       0
   23942 MEMB 89   PSM  C11F CTL2          -0.18        12.011       0
   23943 MEMB 89   PSM  H11F HAL2           0.09         1.008       0
   23944 MEMB 89   PSM  H11G HAL2           0.09         1.008       0
   23945 MEMB 89   PSM  C12F CTL2          -0.18        12.011       0
   23946 MEMB 89   PSM  H12F HAL2           0.09         1.008       0
   23947 MEMB 89   PSM  H12G HAL2           0.09         1.008       0
   23948 MEMB 89   PSM  C13F CTL2          -0.18        12.011       0
   23949 MEMB 89   PSM  H13F HAL2           0.09         1.008       0
   23950 MEMB 89   PSM  H13G HAL2           0.09         1.008       0
   23951 MEMB 89   PSM  C14F CTL2          -0.18        12.011       0
   23952 MEMB 89   PSM  H14F HAL2           0.09         1.008       0
   23953 MEMB 89   PSM  H14G HAL2           0.09         1.008       0
   23954 MEMB 89   PSM  C15F CTL2          -0.18        12.011       0
   23955 MEMB 89   PSM  H15F HAL2           0.09         1.008       0
   23956 MEMB 89   PSM  H15G HAL2           0.09         1.008       0
   23957 MEMB 89   PSM  C16F CTL3          -0.27        12.011       0
   23958 MEMB 89   PSM  H16F HAL3           0.09         1.008       0
   23959 MEMB 89   PSM  H16G HAL3           0.09         1.008       0
   23960 MEMB 89   PSM  H16H HAL3           0.09         1.008       0
   23961 MEMB 90   POPE N    NH3L           -0.3        14.007       0
   23962 MEMB 90   POPE HN1  HCL            0.33         1.008       0
   23963 MEMB 90   POPE HN2  HCL            0.33         1.008       0
   23964 MEMB 90   POPE HN3  HCL            0.33         1.008       0
   23965 MEMB 90   POPE C12  CTL2           0.13        12.011       0
   23966 MEMB 90   POPE H12A HAL2           0.09         1.008       0
   23967 MEMB 90   POPE H12B HAL2           0.09         1.008       0
   23968 MEMB 90   POPE C11  CTL2          -0.08        12.011       0
   23969 MEMB 90   POPE H11A HAL2           0.09         1.008       0
   23970 MEMB 90   POPE H11B HAL2           0.09         1.008       0
   23971 MEMB 90   POPE P    PL              1.5        30.974       0
   23972 MEMB 90   POPE O13  O2L           -0.78       15.9994       0
   23973 MEMB 90   POPE O14  O2L           -0.78       15.9994       0
   23974 MEMB 90   POPE O11  OSLP          -0.57       15.9994       0
   23975 MEMB 90   POPE O12  OSLP          -0.57       15.9994       0
   23976 MEMB 90   POPE C1   CTL2          -0.08        12.011       0
   23977 MEMB 90   POPE HA   HAL2           0.09         1.008       0
   23978 MEMB 90   POPE HB   HAL2           0.09         1.008       0
   23979 MEMB 90   POPE C2   CTL1           0.17        12.011       0
   23980 MEMB 90   POPE HS   HAL1           0.09         1.008       0
   23981 MEMB 90   POPE O21  OSL           -0.49       15.9994       0
   23982 MEMB 90   POPE C21  CL              0.9        12.011       0
   23983 MEMB 90   POPE O22  OBL           -0.63       15.9994       0
   23984 MEMB 90   POPE C22  CTL2          -0.22        12.011       0
   23985 MEMB 90   POPE H2R  HAL2           0.09         1.008       0
   23986 MEMB 90   POPE H2S  HAL2           0.09         1.008       0
   23987 MEMB 90   POPE C3   CTL2           0.08        12.011       0
   23988 MEMB 90   POPE HX   HAL2           0.09         1.008       0
   23989 MEMB 90   POPE HY   HAL2           0.09         1.008       0
   23990 MEMB 90   POPE O31  OSL           -0.49       15.9994       0
   23991 MEMB 90   POPE C31  CL              0.9        12.011       0
   23992 MEMB 90   POPE O32  OBL           -0.63       15.9994       0
   23993 MEMB 90   POPE C32  CTL2          -0.22        12.011       0
   23994 MEMB 90   POPE H2X  HAL2           0.09         1.008       0
   23995 MEMB 90   POPE H2Y  HAL2           0.09         1.008       0
   23996 MEMB 90   POPE C23  CTL2          -0.18        12.011       0
   23997 MEMB 90   POPE H3R  HAL2           0.09         1.008       0
   23998 MEMB 90   POPE H3S  HAL2           0.09         1.008       0
   23999 MEMB 90   POPE C24  CTL2          -0.18        12.011       0
   24000 MEMB 90   POPE H4R  HAL2           0.09         1.008       0
   24001 MEMB 90   POPE H4S  HAL2           0.09         1.008       0
   24002 MEMB 90   POPE C25  CTL2          -0.18        12.011       0
   24003 MEMB 90   POPE H5R  HAL2           0.09         1.008       0
   24004 MEMB 90   POPE H5S  HAL2           0.09         1.008       0
   24005 MEMB 90   POPE C26  CTL2          -0.18        12.011       0
   24006 MEMB 90   POPE H6R  HAL2           0.09         1.008       0
   24007 MEMB 90   POPE H6S  HAL2           0.09         1.008       0
   24008 MEMB 90   POPE C27  CTL2          -0.18        12.011       0
   24009 MEMB 90   POPE H7R  HAL2           0.09         1.008       0
   24010 MEMB 90   POPE H7S  HAL2           0.09         1.008       0
   24011 MEMB 90   POPE C28  CTL2          -0.18        12.011       0
   24012 MEMB 90   POPE H8R  HAL2           0.09         1.008       0
   24013 MEMB 90   POPE H8S  HAL2           0.09         1.008       0
   24014 MEMB 90   POPE C29  CEL1          -0.15        12.011       0
   24015 MEMB 90   POPE H91  HEL1           0.15         1.008       0
   24016 MEMB 90   POPE C210 CEL1          -0.15        12.011       0
   24017 MEMB 90   POPE H101 HEL1           0.15         1.008       0
   24018 MEMB 90   POPE C211 CTL2          -0.18        12.011       0
   24019 MEMB 90   POPE H11R HAL2           0.09         1.008       0
   24020 MEMB 90   POPE H11S HAL2           0.09         1.008       0
   24021 MEMB 90   POPE C212 CTL2          -0.18        12.011       0
   24022 MEMB 90   POPE H12R HAL2           0.09         1.008       0
   24023 MEMB 90   POPE H12S HAL2           0.09         1.008       0
   24024 MEMB 90   POPE C213 CTL2          -0.18        12.011       0
   24025 MEMB 90   POPE H13R HAL2           0.09         1.008       0
   24026 MEMB 90   POPE H13S HAL2           0.09         1.008       0
   24027 MEMB 90   POPE C214 CTL2          -0.18        12.011       0
   24028 MEMB 90   POPE H14R HAL2           0.09         1.008       0
   24029 MEMB 90   POPE H14S HAL2           0.09         1.008       0
   24030 MEMB 90   POPE C215 CTL2          -0.18        12.011       0
   24031 MEMB 90   POPE H15R HAL2           0.09         1.008       0
   24032 MEMB 90   POPE H15S HAL2           0.09         1.008       0
   24033 MEMB 90   POPE C216 CTL2          -0.18        12.011       0
   24034 MEMB 90   POPE H16R HAL2           0.09         1.008       0
   24035 MEMB 90   POPE H16S HAL2           0.09         1.008       0
   24036 MEMB 90   POPE C217 CTL2          -0.18        12.011       0
   24037 MEMB 90   POPE H17R HAL2           0.09         1.008       0
   24038 MEMB 90   POPE H17S HAL2           0.09         1.008       0
   24039 MEMB 90   POPE C218 CTL3          -0.27        12.011       0
   24040 MEMB 90   POPE H18R HAL3           0.09         1.008       0
   24041 MEMB 90   POPE H18S HAL3           0.09         1.008       0
   24042 MEMB 90   POPE H18T HAL3           0.09         1.008       0
   24043 MEMB 90   POPE C33  CTL2          -0.18        12.011       0
   24044 MEMB 90   POPE H3X  HAL2           0.09         1.008       0
   24045 MEMB 90   POPE H3Y  HAL2           0.09         1.008       0
   24046 MEMB 90   POPE C34  CTL2          -0.18        12.011       0
   24047 MEMB 90   POPE H4X  HAL2           0.09         1.008       0
   24048 MEMB 90   POPE H4Y  HAL2           0.09         1.008       0
   24049 MEMB 90   POPE C35  CTL2          -0.18        12.011       0
   24050 MEMB 90   POPE H5X  HAL2           0.09         1.008       0
   24051 MEMB 90   POPE H5Y  HAL2           0.09         1.008       0
   24052 MEMB 90   POPE C36  CTL2          -0.18        12.011       0
   24053 MEMB 90   POPE H6X  HAL2           0.09         1.008       0
   24054 MEMB 90   POPE H6Y  HAL2           0.09         1.008       0
   24055 MEMB 90   POPE C37  CTL2          -0.18        12.011       0
   24056 MEMB 90   POPE H7X  HAL2           0.09         1.008       0
   24057 MEMB 90   POPE H7Y  HAL2           0.09         1.008       0
   24058 MEMB 90   POPE C38  CTL2          -0.18        12.011       0
   24059 MEMB 90   POPE H8X  HAL2           0.09         1.008       0
   24060 MEMB 90   POPE H8Y  HAL2           0.09         1.008       0
   24061 MEMB 90   POPE C39  CTL2          -0.18        12.011       0
   24062 MEMB 90   POPE H9X  HAL2           0.09         1.008       0
   24063 MEMB 90   POPE H9Y  HAL2           0.09         1.008       0
   24064 MEMB 90   POPE C310 CTL2          -0.18        12.011       0
   24065 MEMB 90   POPE H10X HAL2           0.09         1.008       0
   24066 MEMB 90   POPE H10Y HAL2           0.09         1.008       0
   24067 MEMB 90   POPE C311 CTL2          -0.18        12.011       0
   24068 MEMB 90   POPE H11X HAL2           0.09         1.008       0
   24069 MEMB 90   POPE H11Y HAL2           0.09         1.008       0
   24070 MEMB 90   POPE C312 CTL2          -0.18        12.011       0
   24071 MEMB 90   POPE H12X HAL2           0.09         1.008       0
   24072 MEMB 90   POPE H12Y HAL2           0.09         1.008       0
   24073 MEMB 90   POPE C313 CTL2          -0.18        12.011       0
   24074 MEMB 90   POPE H13X HAL2           0.09         1.008       0
   24075 MEMB 90   POPE H13Y HAL2           0.09         1.008       0
   24076 MEMB 90   POPE C314 CTL2          -0.18        12.011       0
   24077 MEMB 90   POPE H14X HAL2           0.09         1.008       0
   24078 MEMB 90   POPE H14Y HAL2           0.09         1.008       0
   24079 MEMB 90   POPE C315 CTL2          -0.18        12.011       0
   24080 MEMB 90   POPE H15X HAL2           0.09         1.008       0
   24081 MEMB 90   POPE H15Y HAL2           0.09         1.008       0
   24082 MEMB 90   POPE C316 CTL3          -0.27        12.011       0
   24083 MEMB 90   POPE H16X HAL3           0.09         1.008       0
   24084 MEMB 90   POPE H16Y HAL3           0.09         1.008       0
   24085 MEMB 90   POPE H16Z HAL3           0.09         1.008       0
   24086 MEMB 91   POPS N    NH3L           -0.3        14.007       0
   24087 MEMB 91   POPS HN1  HCL            0.33         1.008       0
   24088 MEMB 91   POPS HN2  HCL            0.33         1.008       0
   24089 MEMB 91   POPS HN3  HCL            0.33         1.008       0
   24090 MEMB 91   POPS C12  CTL1           0.21        12.011       0
   24091 MEMB 91   POPS H12A HBL             0.1         1.008       0
   24092 MEMB 91   POPS C13  CCL            0.34        12.011       0
   24093 MEMB 91   POPS O13A OCL           -0.67       15.9994       0
   24094 MEMB 91   POPS O13B OCL           -0.67       15.9994       0
   24095 MEMB 91   POPS C11  CTL2          -0.08        12.011       0
   24096 MEMB 91   POPS H11A HAL2           0.09         1.008       0
   24097 MEMB 91   POPS H11B HAL2           0.09         1.008       0
   24098 MEMB 91   POPS P    PL              1.5        30.974       0
   24099 MEMB 91   POPS O13  O2L           -0.78       15.9994       0
   24100 MEMB 91   POPS O14  O2L           -0.78       15.9994       0
   24101 MEMB 91   POPS O12  OSLP          -0.57       15.9994       0
   24102 MEMB 91   POPS O11  OSLP          -0.57       15.9994       0
   24103 MEMB 91   POPS C1   CTL2          -0.08        12.011       0
   24104 MEMB 91   POPS HA   HAL2           0.09         1.008       0
   24105 MEMB 91   POPS HB   HAL2           0.09         1.008       0
   24106 MEMB 91   POPS C2   CTL1           0.17        12.011       0
   24107 MEMB 91   POPS HS   HAL1           0.09         1.008       0
   24108 MEMB 91   POPS O21  OSL           -0.49       15.9994       0
   24109 MEMB 91   POPS C21  CL              0.9        12.011       0
   24110 MEMB 91   POPS O22  OBL           -0.63       15.9994       0
   24111 MEMB 91   POPS C22  CTL2          -0.22        12.011       0
   24112 MEMB 91   POPS H2R  HAL2           0.09         1.008       0
   24113 MEMB 91   POPS H2S  HAL2           0.09         1.008       0
   24114 MEMB 91   POPS C3   CTL2           0.08        12.011       0
   24115 MEMB 91   POPS HX   HAL2           0.09         1.008       0
   24116 MEMB 91   POPS HY   HAL2           0.09         1.008       0
   24117 MEMB 91   POPS O31  OSL           -0.49       15.9994       0
   24118 MEMB 91   POPS C31  CL              0.9        12.011       0
   24119 MEMB 91   POPS O32  OBL           -0.63       15.9994       0
   24120 MEMB 91   POPS C32  CTL2          -0.22        12.011       0
   24121 MEMB 91   POPS H2X  HAL2           0.09         1.008       0
   24122 MEMB 91   POPS H2Y  HAL2           0.09         1.008       0
   24123 MEMB 91   POPS C23  CTL2          -0.18        12.011       0
   24124 MEMB 91   POPS H3R  HAL2           0.09         1.008       0
   24125 MEMB 91   POPS H3S  HAL2           0.09         1.008       0
   24126 MEMB 91   POPS C24  CTL2          -0.18        12.011       0
   24127 MEMB 91   POPS H4R  HAL2           0.09         1.008       0
   24128 MEMB 91   POPS H4S  HAL2           0.09         1.008       0
   24129 MEMB 91   POPS C25  CTL2          -0.18        12.011       0
   24130 MEMB 91   POPS H5R  HAL2           0.09         1.008       0
   24131 MEMB 91   POPS H5S  HAL2           0.09         1.008       0
   24132 MEMB 91   POPS C26  CTL2          -0.18        12.011       0
   24133 MEMB 91   POPS H6R  HAL2           0.09         1.008       0
   24134 MEMB 91   POPS H6S  HAL2           0.09         1.008       0
   24135 MEMB 91   POPS C27  CTL2          -0.18        12.011       0
   24136 MEMB 91   POPS H7R  HAL2           0.09         1.008       0
   24137 MEMB 91   POPS H7S  HAL2           0.09         1.008       0
   24138 MEMB 91   POPS C28  CTL2          -0.18        12.011       0
   24139 MEMB 91   POPS H8R  HAL2           0.09         1.008       0
   24140 MEMB 91   POPS H8S  HAL2           0.09         1.008       0
   24141 MEMB 91   POPS C29  CEL1          -0.15        12.011       0
   24142 MEMB 91   POPS H91  HEL1           0.15         1.008       0
   24143 MEMB 91   POPS C210 CEL1          -0.15        12.011       0
   24144 MEMB 91   POPS H101 HEL1           0.15         1.008       0
   24145 MEMB 91   POPS C211 CTL2          -0.18        12.011       0
   24146 MEMB 91   POPS H11R HAL2           0.09         1.008       0
   24147 MEMB 91   POPS H11S HAL2           0.09         1.008       0
   24148 MEMB 91   POPS C212 CTL2          -0.18        12.011       0
   24149 MEMB 91   POPS H12R HAL2           0.09         1.008       0
   24150 MEMB 91   POPS H12S HAL2           0.09         1.008       0
   24151 MEMB 91   POPS C213 CTL2          -0.18        12.011       0
   24152 MEMB 91   POPS H13R HAL2           0.09         1.008       0
   24153 MEMB 91   POPS H13S HAL2           0.09         1.008       0
   24154 MEMB 91   POPS C214 CTL2          -0.18        12.011       0
   24155 MEMB 91   POPS H14R HAL2           0.09         1.008       0
   24156 MEMB 91   POPS H14S HAL2           0.09         1.008       0
   24157 MEMB 91   POPS C215 CTL2          -0.18        12.011       0
   24158 MEMB 91   POPS H15R HAL2           0.09         1.008       0
   24159 MEMB 91   POPS H15S HAL2           0.09         1.008       0
   24160 MEMB 91   POPS C216 CTL2          -0.18        12.011       0
   24161 MEMB 91   POPS H16R HAL2           0.09         1.008       0
   24162 MEMB 91   POPS H16S HAL2           0.09         1.008       0
   24163 MEMB 91   POPS C217 CTL2          -0.18        12.011       0
   24164 MEMB 91   POPS H17R HAL2           0.09         1.008       0
   24165 MEMB 91   POPS H17S HAL2           0.09         1.008       0
   24166 MEMB 91   POPS C218 CTL3          -0.27        12.011       0
   24167 MEMB 91   POPS H18R HAL3           0.09         1.008       0
   24168 MEMB 91   POPS H18S HAL3           0.09         1.008       0
   24169 MEMB 91   POPS H18T HAL3           0.09         1.008       0
   24170 MEMB 91   POPS C33  CTL2          -0.18        12.011       0
   24171 MEMB 91   POPS H3X  HAL2           0.09         1.008       0
   24172 MEMB 91   POPS H3Y  HAL2           0.09         1.008       0
   24173 MEMB 91   POPS C34  CTL2          -0.18        12.011       0
   24174 MEMB 91   POPS H4X  HAL2           0.09         1.008       0
   24175 MEMB 91   POPS H4Y  HAL2           0.09         1.008       0
   24176 MEMB 91   POPS C35  CTL2          -0.18        12.011       0
   24177 MEMB 91   POPS H5X  HAL2           0.09         1.008       0
   24178 MEMB 91   POPS H5Y  HAL2           0.09         1.008       0
   24179 MEMB 91   POPS C36  CTL2          -0.18        12.011       0
   24180 MEMB 91   POPS H6X  HAL2           0.09         1.008       0
   24181 MEMB 91   POPS H6Y  HAL2           0.09         1.008       0
   24182 MEMB 91   POPS C37  CTL2          -0.18        12.011       0
   24183 MEMB 91   POPS H7X  HAL2           0.09         1.008       0
   24184 MEMB 91   POPS H7Y  HAL2           0.09         1.008       0
   24185 MEMB 91   POPS C38  CTL2          -0.18        12.011       0
   24186 MEMB 91   POPS H8X  HAL2           0.09         1.008       0
   24187 MEMB 91   POPS H8Y  HAL2           0.09         1.008       0
   24188 MEMB 91   POPS C39  CTL2          -0.18        12.011       0
   24189 MEMB 91   POPS H9X  HAL2           0.09         1.008       0
   24190 MEMB 91   POPS H9Y  HAL2           0.09         1.008       0
   24191 MEMB 91   POPS C310 CTL2          -0.18        12.011       0
   24192 MEMB 91   POPS H10X HAL2           0.09         1.008       0
   24193 MEMB 91   POPS H10Y HAL2           0.09         1.008       0
   24194 MEMB 91   POPS C311 CTL2          -0.18        12.011       0
   24195 MEMB 91   POPS H11X HAL2           0.09         1.008       0
   24196 MEMB 91   POPS H11Y HAL2           0.09         1.008       0
   24197 MEMB 91   POPS C312 CTL2          -0.18        12.011       0
   24198 MEMB 91   POPS H12X HAL2           0.09         1.008       0
   24199 MEMB 91   POPS H12Y HAL2           0.09         1.008       0
   24200 MEMB 91   POPS C313 CTL2          -0.18        12.011       0
   24201 MEMB 91   POPS H13X HAL2           0.09         1.008       0
   24202 MEMB 91   POPS H13Y HAL2           0.09         1.008       0
   24203 MEMB 91   POPS C314 CTL2          -0.18        12.011       0
   24204 MEMB 91   POPS H14X HAL2           0.09         1.008       0
   24205 MEMB 91   POPS H14Y HAL2           0.09         1.008       0
   24206 MEMB 91   POPS C315 CTL2          -0.18        12.011       0
   24207 MEMB 91   POPS H15X HAL2           0.09         1.008       0
   24208 MEMB 91   POPS H15Y HAL2           0.09         1.008       0
   24209 MEMB 91   POPS C316 CTL3          -0.27        12.011       0
   24210 MEMB 91   POPS H16X HAL3           0.09         1.008       0
   24211 MEMB 91   POPS H16Y HAL3           0.09         1.008       0
   24212 MEMB 91   POPS H16Z HAL3           0.09         1.008       0
   24213 MEMB 92   POPC N    NTL            -0.6        14.007       0
   24214 MEMB 92   POPC C12  CTL2           -0.1        12.011       0
   24215 MEMB 92   POPC H12A HL             0.25         1.008       0
   24216 MEMB 92   POPC H12B HL             0.25         1.008       0
   24217 MEMB 92   POPC C13  CTL5          -0.35        12.011       0
   24218 MEMB 92   POPC H13A HL             0.25         1.008       0
   24219 MEMB 92   POPC H13B HL             0.25         1.008       0
   24220 MEMB 92   POPC H13C HL             0.25         1.008       0
   24221 MEMB 92   POPC C14  CTL5          -0.35        12.011       0
   24222 MEMB 92   POPC H14A HL             0.25         1.008       0
   24223 MEMB 92   POPC H14B HL             0.25         1.008       0
   24224 MEMB 92   POPC H14C HL             0.25         1.008       0
   24225 MEMB 92   POPC C15  CTL5          -0.35        12.011       0
   24226 MEMB 92   POPC H15A HL             0.25         1.008       0
   24227 MEMB 92   POPC H15B HL             0.25         1.008       0
   24228 MEMB 92   POPC H15C HL             0.25         1.008       0
   24229 MEMB 92   POPC C11  CTL2          -0.08        12.011       0
   24230 MEMB 92   POPC H11A HAL2           0.09         1.008       0
   24231 MEMB 92   POPC H11B HAL2           0.09         1.008       0
   24232 MEMB 92   POPC P    PL              1.5        30.974       0
   24233 MEMB 92   POPC O13  O2L           -0.78       15.9994       0
   24234 MEMB 92   POPC O14  O2L           -0.78       15.9994       0
   24235 MEMB 92   POPC O12  OSLP          -0.57       15.9994       0
   24236 MEMB 92   POPC O11  OSLP          -0.57       15.9994       0
   24237 MEMB 92   POPC C1   CTL2          -0.08        12.011       0
   24238 MEMB 92   POPC HA   HAL2           0.09         1.008       0
   24239 MEMB 92   POPC HB   HAL2           0.09         1.008       0
   24240 MEMB 92   POPC C2   CTL1           0.17        12.011       0
   24241 MEMB 92   POPC HS   HAL1           0.09         1.008       0
   24242 MEMB 92   POPC O21  OSL           -0.49       15.9994       0
   24243 MEMB 92   POPC C21  CL              0.9        12.011       0
   24244 MEMB 92   POPC O22  OBL           -0.63       15.9994       0
   24245 MEMB 92   POPC C22  CTL2          -0.22        12.011       0
   24246 MEMB 92   POPC H2R  HAL2           0.09         1.008       0
   24247 MEMB 92   POPC H2S  HAL2           0.09         1.008       0
   24248 MEMB 92   POPC C3   CTL2           0.08        12.011       0
   24249 MEMB 92   POPC HX   HAL2           0.09         1.008       0
   24250 MEMB 92   POPC HY   HAL2           0.09         1.008       0
   24251 MEMB 92   POPC O31  OSL           -0.49       15.9994       0
   24252 MEMB 92   POPC C31  CL              0.9        12.011       0
   24253 MEMB 92   POPC O32  OBL           -0.63       15.9994       0
   24254 MEMB 92   POPC C32  CTL2          -0.22        12.011       0
   24255 MEMB 92   POPC H2X  HAL2           0.09         1.008       0
   24256 MEMB 92   POPC H2Y  HAL2           0.09         1.008       0
   24257 MEMB 92   POPC C23  CTL2          -0.18        12.011       0
   24258 MEMB 92   POPC H3R  HAL2           0.09         1.008       0
   24259 MEMB 92   POPC H3S  HAL2           0.09         1.008       0
   24260 MEMB 92   POPC C24  CTL2          -0.18        12.011       0
   24261 MEMB 92   POPC H4R  HAL2           0.09         1.008       0
   24262 MEMB 92   POPC H4S  HAL2           0.09         1.008       0
   24263 MEMB 92   POPC C25  CTL2          -0.18        12.011       0
   24264 MEMB 92   POPC H5R  HAL2           0.09         1.008       0
   24265 MEMB 92   POPC H5S  HAL2           0.09         1.008       0
   24266 MEMB 92   POPC C26  CTL2          -0.18        12.011       0
   24267 MEMB 92   POPC H6R  HAL2           0.09         1.008       0
   24268 MEMB 92   POPC H6S  HAL2           0.09         1.008       0
   24269 MEMB 92   POPC C27  CTL2          -0.18        12.011       0
   24270 MEMB 92   POPC H7R  HAL2           0.09         1.008       0
   24271 MEMB 92   POPC H7S  HAL2           0.09         1.008       0
   24272 MEMB 92   POPC C28  CTL2          -0.18        12.011       0
   24273 MEMB 92   POPC H8R  HAL2           0.09         1.008       0
   24274 MEMB 92   POPC H8S  HAL2           0.09         1.008       0
   24275 MEMB 92   POPC C29  CEL1          -0.15        12.011       0
   24276 MEMB 92   POPC H91  HEL1           0.15         1.008       0
   24277 MEMB 92   POPC C210 CEL1          -0.15        12.011       0
   24278 MEMB 92   POPC H101 HEL1           0.15         1.008       0
   24279 MEMB 92   POPC C211 CTL2          -0.18        12.011       0
   24280 MEMB 92   POPC H11R HAL2           0.09         1.008       0
   24281 MEMB 92   POPC H11S HAL2           0.09         1.008       0
   24282 MEMB 92   POPC C212 CTL2          -0.18        12.011       0
   24283 MEMB 92   POPC H12R HAL2           0.09         1.008       0
   24284 MEMB 92   POPC H12S HAL2           0.09         1.008       0
   24285 MEMB 92   POPC C213 CTL2          -0.18        12.011       0
   24286 MEMB 92   POPC H13R HAL2           0.09         1.008       0
   24287 MEMB 92   POPC H13S HAL2           0.09         1.008       0
   24288 MEMB 92   POPC C214 CTL2          -0.18        12.011       0
   24289 MEMB 92   POPC H14R HAL2           0.09         1.008       0
   24290 MEMB 92   POPC H14S HAL2           0.09         1.008       0
   24291 MEMB 92   POPC C215 CTL2          -0.18        12.011       0
   24292 MEMB 92   POPC H15R HAL2           0.09         1.008       0
   24293 MEMB 92   POPC H15S HAL2           0.09         1.008       0
   24294 MEMB 92   POPC C216 CTL2          -0.18        12.011       0
   24295 MEMB 92   POPC H16R HAL2           0.09         1.008       0
   24296 MEMB 92   POPC H16S HAL2           0.09         1.008       0
   24297 MEMB 92   POPC C217 CTL2          -0.18        12.011       0
   24298 MEMB 92   POPC H17R HAL2           0.09         1.008       0
   24299 MEMB 92   POPC H17S HAL2           0.09         1.008       0
   24300 MEMB 92   POPC C218 CTL3          -0.27        12.011       0
   24301 MEMB 92   POPC H18R HAL3           0.09         1.008       0
   24302 MEMB 92   POPC H18S HAL3           0.09         1.008       0
   24303 MEMB 92   POPC H18T HAL3           0.09         1.008       0
   24304 MEMB 92   POPC C33  CTL2          -0.18        12.011       0
   24305 MEMB 92   POPC H3X  HAL2           0.09         1.008       0
   24306 MEMB 92   POPC H3Y  HAL2           0.09         1.008       0
   24307 MEMB 92   POPC C34  CTL2          -0.18        12.011       0
   24308 MEMB 92   POPC H4X  HAL2           0.09         1.008       0
   24309 MEMB 92   POPC H4Y  HAL2           0.09         1.008       0
   24310 MEMB 92   POPC C35  CTL2          -0.18        12.011       0
   24311 MEMB 92   POPC H5X  HAL2           0.09         1.008       0
   24312 MEMB 92   POPC H5Y  HAL2           0.09         1.008       0
   24313 MEMB 92   POPC C36  CTL2          -0.18        12.011       0
   24314 MEMB 92   POPC H6X  HAL2           0.09         1.008       0
   24315 MEMB 92   POPC H6Y  HAL2           0.09         1.008       0
   24316 MEMB 92   POPC C37  CTL2          -0.18        12.011       0
   24317 MEMB 92   POPC H7X  HAL2           0.09         1.008       0
   24318 MEMB 92   POPC H7Y  HAL2           0.09         1.008       0
   24319 MEMB 92   POPC C38  CTL2          -0.18        12.011       0
   24320 MEMB 92   POPC H8X  HAL2           0.09         1.008       0
   24321 MEMB 92   POPC H8Y  HAL2           0.09         1.008       0
   24322 MEMB 92   POPC C39  CTL2          -0.18        12.011       0
   24323 MEMB 92   POPC H9X  HAL2           0.09         1.008       0
   24324 MEMB 92   POPC H9Y  HAL2           0.09         1.008       0
   24325 MEMB 92   POPC C310 CTL2          -0.18        12.011       0
   24326 MEMB 92   POPC H10X HAL2           0.09         1.008       0
   24327 MEMB 92   POPC H10Y HAL2           0.09         1.008       0
   24328 MEMB 92   POPC C311 CTL2          -0.18        12.011       0
   24329 MEMB 92   POPC H11X HAL2           0.09         1.008       0
   24330 MEMB 92   POPC H11Y HAL2           0.09         1.008       0
   24331 MEMB 92   POPC C312 CTL2          -0.18        12.011       0
   24332 MEMB 92   POPC H12X HAL2           0.09         1.008       0
   24333 MEMB 92   POPC H12Y HAL2           0.09         1.008       0
   24334 MEMB 92   POPC C313 CTL2          -0.18        12.011       0
   24335 MEMB 92   POPC H13X HAL2           0.09         1.008       0
   24336 MEMB 92   POPC H13Y HAL2           0.09         1.008       0
   24337 MEMB 92   POPC C314 CTL2          -0.18        12.011       0
   24338 MEMB 92   POPC H14X HAL2           0.09         1.008       0
   24339 MEMB 92   POPC H14Y HAL2           0.09         1.008       0
   24340 MEMB 92   POPC C315 CTL2          -0.18        12.011       0
   24341 MEMB 92   POPC H15X HAL2           0.09         1.008       0
   24342 MEMB 92   POPC H15Y HAL2           0.09         1.008       0
   24343 MEMB 92   POPC C316 CTL3          -0.27        12.011       0
   24344 MEMB 92   POPC H16X HAL3           0.09         1.008       0
   24345 MEMB 92   POPC H16Y HAL3           0.09         1.008       0
   24346 MEMB 92   POPC H16Z HAL3           0.09         1.008       0
   24347 MEMB 93   POPE N    NH3L           -0.3        14.007       0
   24348 MEMB 93   POPE HN1  HCL            0.33         1.008       0
   24349 MEMB 93   POPE HN2  HCL            0.33         1.008       0
   24350 MEMB 93   POPE HN3  HCL            0.33         1.008       0
   24351 MEMB 93   POPE C12  CTL2           0.13        12.011       0
   24352 MEMB 93   POPE H12A HAL2           0.09         1.008       0
   24353 MEMB 93   POPE H12B HAL2           0.09         1.008       0
   24354 MEMB 93   POPE C11  CTL2          -0.08        12.011       0
   24355 MEMB 93   POPE H11A HAL2           0.09         1.008       0
   24356 MEMB 93   POPE H11B HAL2           0.09         1.008       0
   24357 MEMB 93   POPE P    PL              1.5        30.974       0
   24358 MEMB 93   POPE O13  O2L           -0.78       15.9994       0
   24359 MEMB 93   POPE O14  O2L           -0.78       15.9994       0
   24360 MEMB 93   POPE O11  OSLP          -0.57       15.9994       0
   24361 MEMB 93   POPE O12  OSLP          -0.57       15.9994       0
   24362 MEMB 93   POPE C1   CTL2          -0.08        12.011       0
   24363 MEMB 93   POPE HA   HAL2           0.09         1.008       0
   24364 MEMB 93   POPE HB   HAL2           0.09         1.008       0
   24365 MEMB 93   POPE C2   CTL1           0.17        12.011       0
   24366 MEMB 93   POPE HS   HAL1           0.09         1.008       0
   24367 MEMB 93   POPE O21  OSL           -0.49       15.9994       0
   24368 MEMB 93   POPE C21  CL              0.9        12.011       0
   24369 MEMB 93   POPE O22  OBL           -0.63       15.9994       0
   24370 MEMB 93   POPE C22  CTL2          -0.22        12.011       0
   24371 MEMB 93   POPE H2R  HAL2           0.09         1.008       0
   24372 MEMB 93   POPE H2S  HAL2           0.09         1.008       0
   24373 MEMB 93   POPE C3   CTL2           0.08        12.011       0
   24374 MEMB 93   POPE HX   HAL2           0.09         1.008       0
   24375 MEMB 93   POPE HY   HAL2           0.09         1.008       0
   24376 MEMB 93   POPE O31  OSL           -0.49       15.9994       0
   24377 MEMB 93   POPE C31  CL              0.9        12.011       0
   24378 MEMB 93   POPE O32  OBL           -0.63       15.9994       0
   24379 MEMB 93   POPE C32  CTL2          -0.22        12.011       0
   24380 MEMB 93   POPE H2X  HAL2           0.09         1.008       0
   24381 MEMB 93   POPE H2Y  HAL2           0.09         1.008       0
   24382 MEMB 93   POPE C23  CTL2          -0.18        12.011       0
   24383 MEMB 93   POPE H3R  HAL2           0.09         1.008       0
   24384 MEMB 93   POPE H3S  HAL2           0.09         1.008       0
   24385 MEMB 93   POPE C24  CTL2          -0.18        12.011       0
   24386 MEMB 93   POPE H4R  HAL2           0.09         1.008       0
   24387 MEMB 93   POPE H4S  HAL2           0.09         1.008       0
   24388 MEMB 93   POPE C25  CTL2          -0.18        12.011       0
   24389 MEMB 93   POPE H5R  HAL2           0.09         1.008       0
   24390 MEMB 93   POPE H5S  HAL2           0.09         1.008       0
   24391 MEMB 93   POPE C26  CTL2          -0.18        12.011       0
   24392 MEMB 93   POPE H6R  HAL2           0.09         1.008       0
   24393 MEMB 93   POPE H6S  HAL2           0.09         1.008       0
   24394 MEMB 93   POPE C27  CTL2          -0.18        12.011       0
   24395 MEMB 93   POPE H7R  HAL2           0.09         1.008       0
   24396 MEMB 93   POPE H7S  HAL2           0.09         1.008       0
   24397 MEMB 93   POPE C28  CTL2          -0.18        12.011       0
   24398 MEMB 93   POPE H8R  HAL2           0.09         1.008       0
   24399 MEMB 93   POPE H8S  HAL2           0.09         1.008       0
   24400 MEMB 93   POPE C29  CEL1          -0.15        12.011       0
   24401 MEMB 93   POPE H91  HEL1           0.15         1.008       0
   24402 MEMB 93   POPE C210 CEL1          -0.15        12.011       0
   24403 MEMB 93   POPE H101 HEL1           0.15         1.008       0
   24404 MEMB 93   POPE C211 CTL2          -0.18        12.011       0
   24405 MEMB 93   POPE H11R HAL2           0.09         1.008       0
   24406 MEMB 93   POPE H11S HAL2           0.09         1.008       0
   24407 MEMB 93   POPE C212 CTL2          -0.18        12.011       0
   24408 MEMB 93   POPE H12R HAL2           0.09         1.008       0
   24409 MEMB 93   POPE H12S HAL2           0.09         1.008       0
   24410 MEMB 93   POPE C213 CTL2          -0.18        12.011       0
   24411 MEMB 93   POPE H13R HAL2           0.09         1.008       0
   24412 MEMB 93   POPE H13S HAL2           0.09         1.008       0
   24413 MEMB 93   POPE C214 CTL2          -0.18        12.011       0
   24414 MEMB 93   POPE H14R HAL2           0.09         1.008       0
   24415 MEMB 93   POPE H14S HAL2           0.09         1.008       0
   24416 MEMB 93   POPE C215 CTL2          -0.18        12.011       0
   24417 MEMB 93   POPE H15R HAL2           0.09         1.008       0
   24418 MEMB 93   POPE H15S HAL2           0.09         1.008       0
   24419 MEMB 93   POPE C216 CTL2          -0.18        12.011       0
   24420 MEMB 93   POPE H16R HAL2           0.09         1.008       0
   24421 MEMB 93   POPE H16S HAL2           0.09         1.008       0
   24422 MEMB 93   POPE C217 CTL2          -0.18        12.011       0
   24423 MEMB 93   POPE H17R HAL2           0.09         1.008       0
   24424 MEMB 93   POPE H17S HAL2           0.09         1.008       0
   24425 MEMB 93   POPE C218 CTL3          -0.27        12.011       0
   24426 MEMB 93   POPE H18R HAL3           0.09         1.008       0
   24427 MEMB 93   POPE H18S HAL3           0.09         1.008       0
   24428 MEMB 93   POPE H18T HAL3           0.09         1.008       0
   24429 MEMB 93   POPE C33  CTL2          -0.18        12.011       0
   24430 MEMB 93   POPE H3X  HAL2           0.09         1.008       0
   24431 MEMB 93   POPE H3Y  HAL2           0.09         1.008       0
   24432 MEMB 93   POPE C34  CTL2          -0.18        12.011       0
   24433 MEMB 93   POPE H4X  HAL2           0.09         1.008       0
   24434 MEMB 93   POPE H4Y  HAL2           0.09         1.008       0
   24435 MEMB 93   POPE C35  CTL2          -0.18        12.011       0
   24436 MEMB 93   POPE H5X  HAL2           0.09         1.008       0
   24437 MEMB 93   POPE H5Y  HAL2           0.09         1.008       0
   24438 MEMB 93   POPE C36  CTL2          -0.18        12.011       0
   24439 MEMB 93   POPE H6X  HAL2           0.09         1.008       0
   24440 MEMB 93   POPE H6Y  HAL2           0.09         1.008       0
   24441 MEMB 93   POPE C37  CTL2          -0.18        12.011       0
   24442 MEMB 93   POPE H7X  HAL2           0.09         1.008       0
   24443 MEMB 93   POPE H7Y  HAL2           0.09         1.008       0
   24444 MEMB 93   POPE C38  CTL2          -0.18        12.011       0
   24445 MEMB 93   POPE H8X  HAL2           0.09         1.008       0
   24446 MEMB 93   POPE H8Y  HAL2           0.09         1.008       0
   24447 MEMB 93   POPE C39  CTL2          -0.18        12.011       0
   24448 MEMB 93   POPE H9X  HAL2           0.09         1.008       0
   24449 MEMB 93   POPE H9Y  HAL2           0.09         1.008       0
   24450 MEMB 93   POPE C310 CTL2          -0.18        12.011       0
   24451 MEMB 93   POPE H10X HAL2           0.09         1.008       0
   24452 MEMB 93   POPE H10Y HAL2           0.09         1.008       0
   24453 MEMB 93   POPE C311 CTL2          -0.18        12.011       0
   24454 MEMB 93   POPE H11X HAL2           0.09         1.008       0
   24455 MEMB 93   POPE H11Y HAL2           0.09         1.008       0
   24456 MEMB 93   POPE C312 CTL2          -0.18        12.011       0
   24457 MEMB 93   POPE H12X HAL2           0.09         1.008       0
   24458 MEMB 93   POPE H12Y HAL2           0.09         1.008       0
   24459 MEMB 93   POPE C313 CTL2          -0.18        12.011       0
   24460 MEMB 93   POPE H13X HAL2           0.09         1.008       0
   24461 MEMB 93   POPE H13Y HAL2           0.09         1.008       0
   24462 MEMB 93   POPE C314 CTL2          -0.18        12.011       0
   24463 MEMB 93   POPE H14X HAL2           0.09         1.008       0
   24464 MEMB 93   POPE H14Y HAL2           0.09         1.008       0
   24465 MEMB 93   POPE C315 CTL2          -0.18        12.011       0
   24466 MEMB 93   POPE H15X HAL2           0.09         1.008       0
   24467 MEMB 93   POPE H15Y HAL2           0.09         1.008       0
   24468 MEMB 93   POPE C316 CTL3          -0.27        12.011       0
   24469 MEMB 93   POPE H16X HAL3           0.09         1.008       0
   24470 MEMB 93   POPE H16Y HAL3           0.09         1.008       0
   24471 MEMB 93   POPE H16Z HAL3           0.09         1.008       0
   24472 MEMB 94   POPC N    NTL            -0.6        14.007       0
   24473 MEMB 94   POPC C12  CTL2           -0.1        12.011       0
   24474 MEMB 94   POPC H12A HL             0.25         1.008       0
   24475 MEMB 94   POPC H12B HL             0.25         1.008       0
   24476 MEMB 94   POPC C13  CTL5          -0.35        12.011       0
   24477 MEMB 94   POPC H13A HL             0.25         1.008       0
   24478 MEMB 94   POPC H13B HL             0.25         1.008       0
   24479 MEMB 94   POPC H13C HL             0.25         1.008       0
   24480 MEMB 94   POPC C14  CTL5          -0.35        12.011       0
   24481 MEMB 94   POPC H14A HL             0.25         1.008       0
   24482 MEMB 94   POPC H14B HL             0.25         1.008       0
   24483 MEMB 94   POPC H14C HL             0.25         1.008       0
   24484 MEMB 94   POPC C15  CTL5          -0.35        12.011       0
   24485 MEMB 94   POPC H15A HL             0.25         1.008       0
   24486 MEMB 94   POPC H15B HL             0.25         1.008       0
   24487 MEMB 94   POPC H15C HL             0.25         1.008       0
   24488 MEMB 94   POPC C11  CTL2          -0.08        12.011       0
   24489 MEMB 94   POPC H11A HAL2           0.09         1.008       0
   24490 MEMB 94   POPC H11B HAL2           0.09         1.008       0
   24491 MEMB 94   POPC P    PL              1.5        30.974       0
   24492 MEMB 94   POPC O13  O2L           -0.78       15.9994       0
   24493 MEMB 94   POPC O14  O2L           -0.78       15.9994       0
   24494 MEMB 94   POPC O12  OSLP          -0.57       15.9994       0
   24495 MEMB 94   POPC O11  OSLP          -0.57       15.9994       0
   24496 MEMB 94   POPC C1   CTL2          -0.08        12.011       0
   24497 MEMB 94   POPC HA   HAL2           0.09         1.008       0
   24498 MEMB 94   POPC HB   HAL2           0.09         1.008       0
   24499 MEMB 94   POPC C2   CTL1           0.17        12.011       0
   24500 MEMB 94   POPC HS   HAL1           0.09         1.008       0
   24501 MEMB 94   POPC O21  OSL           -0.49       15.9994       0
   24502 MEMB 94   POPC C21  CL              0.9        12.011       0
   24503 MEMB 94   POPC O22  OBL           -0.63       15.9994       0
   24504 MEMB 94   POPC C22  CTL2          -0.22        12.011       0
   24505 MEMB 94   POPC H2R  HAL2           0.09         1.008       0
   24506 MEMB 94   POPC H2S  HAL2           0.09         1.008       0
   24507 MEMB 94   POPC C3   CTL2           0.08        12.011       0
   24508 MEMB 94   POPC HX   HAL2           0.09         1.008       0
   24509 MEMB 94   POPC HY   HAL2           0.09         1.008       0
   24510 MEMB 94   POPC O31  OSL           -0.49       15.9994       0
   24511 MEMB 94   POPC C31  CL              0.9        12.011       0
   24512 MEMB 94   POPC O32  OBL           -0.63       15.9994       0
   24513 MEMB 94   POPC C32  CTL2          -0.22        12.011       0
   24514 MEMB 94   POPC H2X  HAL2           0.09         1.008       0
   24515 MEMB 94   POPC H2Y  HAL2           0.09         1.008       0
   24516 MEMB 94   POPC C23  CTL2          -0.18        12.011       0
   24517 MEMB 94   POPC H3R  HAL2           0.09         1.008       0
   24518 MEMB 94   POPC H3S  HAL2           0.09         1.008       0
   24519 MEMB 94   POPC C24  CTL2          -0.18        12.011       0
   24520 MEMB 94   POPC H4R  HAL2           0.09         1.008       0
   24521 MEMB 94   POPC H4S  HAL2           0.09         1.008       0
   24522 MEMB 94   POPC C25  CTL2          -0.18        12.011       0
   24523 MEMB 94   POPC H5R  HAL2           0.09         1.008       0
   24524 MEMB 94   POPC H5S  HAL2           0.09         1.008       0
   24525 MEMB 94   POPC C26  CTL2          -0.18        12.011       0
   24526 MEMB 94   POPC H6R  HAL2           0.09         1.008       0
   24527 MEMB 94   POPC H6S  HAL2           0.09         1.008       0
   24528 MEMB 94   POPC C27  CTL2          -0.18        12.011       0
   24529 MEMB 94   POPC H7R  HAL2           0.09         1.008       0
   24530 MEMB 94   POPC H7S  HAL2           0.09         1.008       0
   24531 MEMB 94   POPC C28  CTL2          -0.18        12.011       0
   24532 MEMB 94   POPC H8R  HAL2           0.09         1.008       0
   24533 MEMB 94   POPC H8S  HAL2           0.09         1.008       0
   24534 MEMB 94   POPC C29  CEL1          -0.15        12.011       0
   24535 MEMB 94   POPC H91  HEL1           0.15         1.008       0
   24536 MEMB 94   POPC C210 CEL1          -0.15        12.011       0
   24537 MEMB 94   POPC H101 HEL1           0.15         1.008       0
   24538 MEMB 94   POPC C211 CTL2          -0.18        12.011       0
   24539 MEMB 94   POPC H11R HAL2           0.09         1.008       0
   24540 MEMB 94   POPC H11S HAL2           0.09         1.008       0
   24541 MEMB 94   POPC C212 CTL2          -0.18        12.011       0
   24542 MEMB 94   POPC H12R HAL2           0.09         1.008       0
   24543 MEMB 94   POPC H12S HAL2           0.09         1.008       0
   24544 MEMB 94   POPC C213 CTL2          -0.18        12.011       0
   24545 MEMB 94   POPC H13R HAL2           0.09         1.008       0
   24546 MEMB 94   POPC H13S HAL2           0.09         1.008       0
   24547 MEMB 94   POPC C214 CTL2          -0.18        12.011       0
   24548 MEMB 94   POPC H14R HAL2           0.09         1.008       0
   24549 MEMB 94   POPC H14S HAL2           0.09         1.008       0
   24550 MEMB 94   POPC C215 CTL2          -0.18        12.011       0
   24551 MEMB 94   POPC H15R HAL2           0.09         1.008       0
   24552 MEMB 94   POPC H15S HAL2           0.09         1.008       0
   24553 MEMB 94   POPC C216 CTL2          -0.18        12.011       0
   24554 MEMB 94   POPC H16R HAL2           0.09         1.008       0
   24555 MEMB 94   POPC H16S HAL2           0.09         1.008       0
   24556 MEMB 94   POPC C217 CTL2          -0.18        12.011       0
   24557 MEMB 94   POPC H17R HAL2           0.09         1.008       0
   24558 MEMB 94   POPC H17S HAL2           0.09         1.008       0
   24559 MEMB 94   POPC C218 CTL3          -0.27        12.011       0
   24560 MEMB 94   POPC H18R HAL3           0.09         1.008       0
   24561 MEMB 94   POPC H18S HAL3           0.09         1.008       0
   24562 MEMB 94   POPC H18T HAL3           0.09         1.008       0
   24563 MEMB 94   POPC C33  CTL2          -0.18        12.011       0
   24564 MEMB 94   POPC H3X  HAL2           0.09         1.008       0
   24565 MEMB 94   POPC H3Y  HAL2           0.09         1.008       0
   24566 MEMB 94   POPC C34  CTL2          -0.18        12.011       0
   24567 MEMB 94   POPC H4X  HAL2           0.09         1.008       0
   24568 MEMB 94   POPC H4Y  HAL2           0.09         1.008       0
   24569 MEMB 94   POPC C35  CTL2          -0.18        12.011       0
   24570 MEMB 94   POPC H5X  HAL2           0.09         1.008       0
   24571 MEMB 94   POPC H5Y  HAL2           0.09         1.008       0
   24572 MEMB 94   POPC C36  CTL2          -0.18        12.011       0
   24573 MEMB 94   POPC H6X  HAL2           0.09         1.008       0
   24574 MEMB 94   POPC H6Y  HAL2           0.09         1.008       0
   24575 MEMB 94   POPC C37  CTL2          -0.18        12.011       0
   24576 MEMB 94   POPC H7X  HAL2           0.09         1.008       0
   24577 MEMB 94   POPC H7Y  HAL2           0.09         1.008       0
   24578 MEMB 94   POPC C38  CTL2          -0.18        12.011       0
   24579 MEMB 94   POPC H8X  HAL2           0.09         1.008       0
   24580 MEMB 94   POPC H8Y  HAL2           0.09         1.008       0
   24581 MEMB 94   POPC C39  CTL2          -0.18        12.011       0
   24582 MEMB 94   POPC H9X  HAL2           0.09         1.008       0
   24583 MEMB 94   POPC H9Y  HAL2           0.09         1.008       0
   24584 MEMB 94   POPC C310 CTL2          -0.18        12.011       0
   24585 MEMB 94   POPC H10X HAL2           0.09         1.008       0
   24586 MEMB 94   POPC H10Y HAL2           0.09         1.008       0
   24587 MEMB 94   POPC C311 CTL2          -0.18        12.011       0
   24588 MEMB 94   POPC H11X HAL2           0.09         1.008       0
   24589 MEMB 94   POPC H11Y HAL2           0.09         1.008       0
   24590 MEMB 94   POPC C312 CTL2          -0.18        12.011       0
   24591 MEMB 94   POPC H12X HAL2           0.09         1.008       0
   24592 MEMB 94   POPC H12Y HAL2           0.09         1.008       0
   24593 MEMB 94   POPC C313 CTL2          -0.18        12.011       0
   24594 MEMB 94   POPC H13X HAL2           0.09         1.008       0
   24595 MEMB 94   POPC H13Y HAL2           0.09         1.008       0
   24596 MEMB 94   POPC C314 CTL2          -0.18        12.011       0
   24597 MEMB 94   POPC H14X HAL2           0.09         1.008       0
   24598 MEMB 94   POPC H14Y HAL2           0.09         1.008       0
   24599 MEMB 94   POPC C315 CTL2          -0.18        12.011       0
   24600 MEMB 94   POPC H15X HAL2           0.09         1.008       0
   24601 MEMB 94   POPC H15Y HAL2           0.09         1.008       0
   24602 MEMB 94   POPC C316 CTL3          -0.27        12.011       0
   24603 MEMB 94   POPC H16X HAL3           0.09         1.008       0
   24604 MEMB 94   POPC H16Y HAL3           0.09         1.008       0
   24605 MEMB 94   POPC H16Z HAL3           0.09         1.008       0
   24606 MEMB 95   PSM  N    NTL            -0.6        14.007       0
   24607 MEMB 95   PSM  C15  CTL5          -0.35        12.011       0
   24608 MEMB 95   PSM  H15A HL             0.25         1.008       0
   24609 MEMB 95   PSM  H15B HL             0.25         1.008       0
   24610 MEMB 95   PSM  H15C HL             0.25         1.008       0
   24611 MEMB 95   PSM  C14  CTL5          -0.35        12.011       0
   24612 MEMB 95   PSM  H14A HL             0.25         1.008       0
   24613 MEMB 95   PSM  H14B HL             0.25         1.008       0
   24614 MEMB 95   PSM  H14C HL             0.25         1.008       0
   24615 MEMB 95   PSM  C13  CTL5          -0.35        12.011       0
   24616 MEMB 95   PSM  H13A HL             0.25         1.008       0
   24617 MEMB 95   PSM  H13B HL             0.25         1.008       0
   24618 MEMB 95   PSM  H13C HL             0.25         1.008       0
   24619 MEMB 95   PSM  C12  CTL2           -0.1        12.011       0
   24620 MEMB 95   PSM  H12A HL             0.25         1.008       0
   24621 MEMB 95   PSM  H12B HL             0.25         1.008       0
   24622 MEMB 95   PSM  C11  CTL2          -0.08        12.011       0
   24623 MEMB 95   PSM  H11A HAL2           0.09         1.008       0
   24624 MEMB 95   PSM  H11B HAL2           0.09         1.008       0
   24625 MEMB 95   PSM  P    PL              1.5        30.974       0
   24626 MEMB 95   PSM  O13  O2L           -0.78       15.9994       0
   24627 MEMB 95   PSM  O14  O2L           -0.78       15.9994       0
   24628 MEMB 95   PSM  O11  OSLP          -0.57       15.9994       0
   24629 MEMB 95   PSM  O12  OSLP          -0.57       15.9994       0
   24630 MEMB 95   PSM  C1S  CTL2          -0.08        12.011       0
   24631 MEMB 95   PSM  H1S  HAL2           0.09         1.008       0
   24632 MEMB 95   PSM  H1T  HAL2           0.09         1.008       0
   24633 MEMB 95   PSM  NF   NHL            -0.7        14.007       0
   24634 MEMB 95   PSM  HNF  H              0.35         1.008       0
   24635 MEMB 95   PSM  C2S  CTL1            0.3        12.011       0
   24636 MEMB 95   PSM  H2S  HAL1           0.05         1.008       0
   24637 MEMB 95   PSM  C3S  CTO1            0.5        12.011       0
   24638 MEMB 95   PSM  H3S  HAL1          -0.11         1.008       0
   24639 MEMB 95   PSM  O3   OHL           -0.69       15.9994       0
   24640 MEMB 95   PSM  HO3  HOL             0.3         1.008       0
   24641 MEMB 95   PSM  C4S  CEL3          -0.15        12.011       0
   24642 MEMB 95   PSM  H4S  HEL1           0.15         1.008       0
   24643 MEMB 95   PSM  C5S  CEL3          -0.15        12.011       0
   24644 MEMB 95   PSM  H5S  HEL1           0.15         1.008       0
   24645 MEMB 95   PSM  C6S  CTL2          -0.18        12.011       0
   24646 MEMB 95   PSM  H6S  HAL2           0.09         1.008       0
   24647 MEMB 95   PSM  H6T  HAL2           0.09         1.008       0
   24648 MEMB 95   PSM  C7S  CTL2          -0.18        12.011       0
   24649 MEMB 95   PSM  H7S  HAL2           0.09         1.008       0
   24650 MEMB 95   PSM  H7T  HAL2           0.09         1.008       0
   24651 MEMB 95   PSM  C8S  CTL2          -0.18        12.011       0
   24652 MEMB 95   PSM  H8S  HAL2           0.09         1.008       0
   24653 MEMB 95   PSM  H8T  HAL2           0.09         1.008       0
   24654 MEMB 95   PSM  C9S  CTL2          -0.18        12.011       0
   24655 MEMB 95   PSM  H9S  HAL2           0.09         1.008       0
   24656 MEMB 95   PSM  H9T  HAL2           0.09         1.008       0
   24657 MEMB 95   PSM  C10S CTL2          -0.18        12.011       0
   24658 MEMB 95   PSM  H10S HAL2           0.09         1.008       0
   24659 MEMB 95   PSM  H10T HAL2           0.09         1.008       0
   24660 MEMB 95   PSM  C11S CTL2          -0.18        12.011       0
   24661 MEMB 95   PSM  H11S HAL2           0.09         1.008       0
   24662 MEMB 95   PSM  H11T HAL2           0.09         1.008       0
   24663 MEMB 95   PSM  C12S CTL2          -0.18        12.011       0
   24664 MEMB 95   PSM  H12S HAL2           0.09         1.008       0
   24665 MEMB 95   PSM  H12T HAL2           0.09         1.008       0
   24666 MEMB 95   PSM  C13S CTL2          -0.18        12.011       0
   24667 MEMB 95   PSM  H13S HAL2           0.09         1.008       0
   24668 MEMB 95   PSM  H13T HAL2           0.09         1.008       0
   24669 MEMB 95   PSM  C14S CTL2          -0.18        12.011       0
   24670 MEMB 95   PSM  H14S HAL2           0.09         1.008       0
   24671 MEMB 95   PSM  H14T HAL2           0.09         1.008       0
   24672 MEMB 95   PSM  C15S CTL2          -0.18        12.011       0
   24673 MEMB 95   PSM  H15S HAL2           0.09         1.008       0
   24674 MEMB 95   PSM  H15T HAL2           0.09         1.008       0
   24675 MEMB 95   PSM  C16S CTL2          -0.18        12.011       0
   24676 MEMB 95   PSM  H16S HAL2           0.09         1.008       0
   24677 MEMB 95   PSM  H16T HAL2           0.09         1.008       0
   24678 MEMB 95   PSM  C17S CTL2          -0.18        12.011       0
   24679 MEMB 95   PSM  H17S HAL2           0.09         1.008       0
   24680 MEMB 95   PSM  H17T HAL2           0.09         1.008       0
   24681 MEMB 95   PSM  C18S CTL3          -0.27        12.011       0
   24682 MEMB 95   PSM  H18S HAL3           0.09         1.008       0
   24683 MEMB 95   PSM  H18T HAL3           0.09         1.008       0
   24684 MEMB 95   PSM  H18U HAL3           0.09         1.008       0
   24685 MEMB 95   PSM  C1F  C              0.55        12.011       0
   24686 MEMB 95   PSM  OF   O              -0.6        15.999       0
   24687 MEMB 95   PSM  C2F  CTL2          -0.07        12.011       0
   24688 MEMB 95   PSM  H2F  HAL2           0.06         1.008       0
   24689 MEMB 95   PSM  H2G  HAL2           0.06         1.008       0
   24690 MEMB 95   PSM  C3F  CTL2          -0.18        12.011       0
   24691 MEMB 95   PSM  H3F  HAL2           0.09         1.008       0
   24692 MEMB 95   PSM  H3G  HAL2           0.09         1.008       0
   24693 MEMB 95   PSM  C4F  CTL2          -0.18        12.011       0
   24694 MEMB 95   PSM  H4F  HAL2           0.09         1.008       0
   24695 MEMB 95   PSM  H4G  HAL2           0.09         1.008       0
   24696 MEMB 95   PSM  C5F  CTL2          -0.18        12.011       0
   24697 MEMB 95   PSM  H5F  HAL2           0.09         1.008       0
   24698 MEMB 95   PSM  H5G  HAL2           0.09         1.008       0
   24699 MEMB 95   PSM  C6F  CTL2          -0.18        12.011       0
   24700 MEMB 95   PSM  H6F  HAL2           0.09         1.008       0
   24701 MEMB 95   PSM  H6G  HAL2           0.09         1.008       0
   24702 MEMB 95   PSM  C7F  CTL2          -0.18        12.011       0
   24703 MEMB 95   PSM  H7F  HAL2           0.09         1.008       0
   24704 MEMB 95   PSM  H7G  HAL2           0.09         1.008       0
   24705 MEMB 95   PSM  C8F  CTL2          -0.18        12.011       0
   24706 MEMB 95   PSM  H8F  HAL2           0.09         1.008       0
   24707 MEMB 95   PSM  H8G  HAL2           0.09         1.008       0
   24708 MEMB 95   PSM  C9F  CTL2          -0.18        12.011       0
   24709 MEMB 95   PSM  H9F  HAL2           0.09         1.008       0
   24710 MEMB 95   PSM  H9G  HAL2           0.09         1.008       0
   24711 MEMB 95   PSM  C10F CTL2          -0.18        12.011       0
   24712 MEMB 95   PSM  H10F HAL2           0.09         1.008       0
   24713 MEMB 95   PSM  H10G HAL2           0.09         1.008       0
   24714 MEMB 95   PSM  C11F CTL2          -0.18        12.011       0
   24715 MEMB 95   PSM  H11F HAL2           0.09         1.008       0
   24716 MEMB 95   PSM  H11G HAL2           0.09         1.008       0
   24717 MEMB 95   PSM  C12F CTL2          -0.18        12.011       0
   24718 MEMB 95   PSM  H12F HAL2           0.09         1.008       0
   24719 MEMB 95   PSM  H12G HAL2           0.09         1.008       0
   24720 MEMB 95   PSM  C13F CTL2          -0.18        12.011       0
   24721 MEMB 95   PSM  H13F HAL2           0.09         1.008       0
   24722 MEMB 95   PSM  H13G HAL2           0.09         1.008       0
   24723 MEMB 95   PSM  C14F CTL2          -0.18        12.011       0
   24724 MEMB 95   PSM  H14F HAL2           0.09         1.008       0
   24725 MEMB 95   PSM  H14G HAL2           0.09         1.008       0
   24726 MEMB 95   PSM  C15F CTL2          -0.18        12.011       0
   24727 MEMB 95   PSM  H15F HAL2           0.09         1.008       0
   24728 MEMB 95   PSM  H15G HAL2           0.09         1.008       0
   24729 MEMB 95   PSM  C16F CTL3          -0.27        12.011       0
   24730 MEMB 95   PSM  H16F HAL3           0.09         1.008       0
   24731 MEMB 95   PSM  H16G HAL3           0.09         1.008       0
   24732 MEMB 95   PSM  H16H HAL3           0.09         1.008       0
   24733 MEMB 96   POPC N    NTL            -0.6        14.007       0
   24734 MEMB 96   POPC C12  CTL2           -0.1        12.011       0
   24735 MEMB 96   POPC H12A HL             0.25         1.008       0
   24736 MEMB 96   POPC H12B HL             0.25         1.008       0
   24737 MEMB 96   POPC C13  CTL5          -0.35        12.011       0
   24738 MEMB 96   POPC H13A HL             0.25         1.008       0
   24739 MEMB 96   POPC H13B HL             0.25         1.008       0
   24740 MEMB 96   POPC H13C HL             0.25         1.008       0
   24741 MEMB 96   POPC C14  CTL5          -0.35        12.011       0
   24742 MEMB 96   POPC H14A HL             0.25         1.008       0
   24743 MEMB 96   POPC H14B HL             0.25         1.008       0
   24744 MEMB 96   POPC H14C HL             0.25         1.008       0
   24745 MEMB 96   POPC C15  CTL5          -0.35        12.011       0
   24746 MEMB 96   POPC H15A HL             0.25         1.008       0
   24747 MEMB 96   POPC H15B HL             0.25         1.008       0
   24748 MEMB 96   POPC H15C HL             0.25         1.008       0
   24749 MEMB 96   POPC C11  CTL2          -0.08        12.011       0
   24750 MEMB 96   POPC H11A HAL2           0.09         1.008       0
   24751 MEMB 96   POPC H11B HAL2           0.09         1.008       0
   24752 MEMB 96   POPC P    PL              1.5        30.974       0
   24753 MEMB 96   POPC O13  O2L           -0.78       15.9994       0
   24754 MEMB 96   POPC O14  O2L           -0.78       15.9994       0
   24755 MEMB 96   POPC O12  OSLP          -0.57       15.9994       0
   24756 MEMB 96   POPC O11  OSLP          -0.57       15.9994       0
   24757 MEMB 96   POPC C1   CTL2          -0.08        12.011       0
   24758 MEMB 96   POPC HA   HAL2           0.09         1.008       0
   24759 MEMB 96   POPC HB   HAL2           0.09         1.008       0
   24760 MEMB 96   POPC C2   CTL1           0.17        12.011       0
   24761 MEMB 96   POPC HS   HAL1           0.09         1.008       0
   24762 MEMB 96   POPC O21  OSL           -0.49       15.9994       0
   24763 MEMB 96   POPC C21  CL              0.9        12.011       0
   24764 MEMB 96   POPC O22  OBL           -0.63       15.9994       0
   24765 MEMB 96   POPC C22  CTL2          -0.22        12.011       0
   24766 MEMB 96   POPC H2R  HAL2           0.09         1.008       0
   24767 MEMB 96   POPC H2S  HAL2           0.09         1.008       0
   24768 MEMB 96   POPC C3   CTL2           0.08        12.011       0
   24769 MEMB 96   POPC HX   HAL2           0.09         1.008       0
   24770 MEMB 96   POPC HY   HAL2           0.09         1.008       0
   24771 MEMB 96   POPC O31  OSL           -0.49       15.9994       0
   24772 MEMB 96   POPC C31  CL              0.9        12.011       0
   24773 MEMB 96   POPC O32  OBL           -0.63       15.9994       0
   24774 MEMB 96   POPC C32  CTL2          -0.22        12.011       0
   24775 MEMB 96   POPC H2X  HAL2           0.09         1.008       0
   24776 MEMB 96   POPC H2Y  HAL2           0.09         1.008       0
   24777 MEMB 96   POPC C23  CTL2          -0.18        12.011       0
   24778 MEMB 96   POPC H3R  HAL2           0.09         1.008       0
   24779 MEMB 96   POPC H3S  HAL2           0.09         1.008       0
   24780 MEMB 96   POPC C24  CTL2          -0.18        12.011       0
   24781 MEMB 96   POPC H4R  HAL2           0.09         1.008       0
   24782 MEMB 96   POPC H4S  HAL2           0.09         1.008       0
   24783 MEMB 96   POPC C25  CTL2          -0.18        12.011       0
   24784 MEMB 96   POPC H5R  HAL2           0.09         1.008       0
   24785 MEMB 96   POPC H5S  HAL2           0.09         1.008       0
   24786 MEMB 96   POPC C26  CTL2          -0.18        12.011       0
   24787 MEMB 96   POPC H6R  HAL2           0.09         1.008       0
   24788 MEMB 96   POPC H6S  HAL2           0.09         1.008       0
   24789 MEMB 96   POPC C27  CTL2          -0.18        12.011       0
   24790 MEMB 96   POPC H7R  HAL2           0.09         1.008       0
   24791 MEMB 96   POPC H7S  HAL2           0.09         1.008       0
   24792 MEMB 96   POPC C28  CTL2          -0.18        12.011       0
   24793 MEMB 96   POPC H8R  HAL2           0.09         1.008       0
   24794 MEMB 96   POPC H8S  HAL2           0.09         1.008       0
   24795 MEMB 96   POPC C29  CEL1          -0.15        12.011       0
   24796 MEMB 96   POPC H91  HEL1           0.15         1.008       0
   24797 MEMB 96   POPC C210 CEL1          -0.15        12.011       0
   24798 MEMB 96   POPC H101 HEL1           0.15         1.008       0
   24799 MEMB 96   POPC C211 CTL2          -0.18        12.011       0
   24800 MEMB 96   POPC H11R HAL2           0.09         1.008       0
   24801 MEMB 96   POPC H11S HAL2           0.09         1.008       0
   24802 MEMB 96   POPC C212 CTL2          -0.18        12.011       0
   24803 MEMB 96   POPC H12R HAL2           0.09         1.008       0
   24804 MEMB 96   POPC H12S HAL2           0.09         1.008       0
   24805 MEMB 96   POPC C213 CTL2          -0.18        12.011       0
   24806 MEMB 96   POPC H13R HAL2           0.09         1.008       0
   24807 MEMB 96   POPC H13S HAL2           0.09         1.008       0
   24808 MEMB 96   POPC C214 CTL2          -0.18        12.011       0
   24809 MEMB 96   POPC H14R HAL2           0.09         1.008       0
   24810 MEMB 96   POPC H14S HAL2           0.09         1.008       0
   24811 MEMB 96   POPC C215 CTL2          -0.18        12.011       0
   24812 MEMB 96   POPC H15R HAL2           0.09         1.008       0
   24813 MEMB 96   POPC H15S HAL2           0.09         1.008       0
   24814 MEMB 96   POPC C216 CTL2          -0.18        12.011       0
   24815 MEMB 96   POPC H16R HAL2           0.09         1.008       0
   24816 MEMB 96   POPC H16S HAL2           0.09         1.008       0
   24817 MEMB 96   POPC C217 CTL2          -0.18        12.011       0
   24818 MEMB 96   POPC H17R HAL2           0.09         1.008       0
   24819 MEMB 96   POPC H17S HAL2           0.09         1.008       0
   24820 MEMB 96   POPC C218 CTL3          -0.27        12.011       0
   24821 MEMB 96   POPC H18R HAL3           0.09         1.008       0
   24822 MEMB 96   POPC H18S HAL3           0.09         1.008       0
   24823 MEMB 96   POPC H18T HAL3           0.09         1.008       0
   24824 MEMB 96   POPC C33  CTL2          -0.18        12.011       0
   24825 MEMB 96   POPC H3X  HAL2           0.09         1.008       0
   24826 MEMB 96   POPC H3Y  HAL2           0.09         1.008       0
   24827 MEMB 96   POPC C34  CTL2          -0.18        12.011       0
   24828 MEMB 96   POPC H4X  HAL2           0.09         1.008       0
   24829 MEMB 96   POPC H4Y  HAL2           0.09         1.008       0
   24830 MEMB 96   POPC C35  CTL2          -0.18        12.011       0
   24831 MEMB 96   POPC H5X  HAL2           0.09         1.008       0
   24832 MEMB 96   POPC H5Y  HAL2           0.09         1.008       0
   24833 MEMB 96   POPC C36  CTL2          -0.18        12.011       0
   24834 MEMB 96   POPC H6X  HAL2           0.09         1.008       0
   24835 MEMB 96   POPC H6Y  HAL2           0.09         1.008       0
   24836 MEMB 96   POPC C37  CTL2          -0.18        12.011       0
   24837 MEMB 96   POPC H7X  HAL2           0.09         1.008       0
   24838 MEMB 96   POPC H7Y  HAL2           0.09         1.008       0
   24839 MEMB 96   POPC C38  CTL2          -0.18        12.011       0
   24840 MEMB 96   POPC H8X  HAL2           0.09         1.008       0
   24841 MEMB 96   POPC H8Y  HAL2           0.09         1.008       0
   24842 MEMB 96   POPC C39  CTL2          -0.18        12.011       0
   24843 MEMB 96   POPC H9X  HAL2           0.09         1.008       0
   24844 MEMB 96   POPC H9Y  HAL2           0.09         1.008       0
   24845 MEMB 96   POPC C310 CTL2          -0.18        12.011       0
   24846 MEMB 96   POPC H10X HAL2           0.09         1.008       0
   24847 MEMB 96   POPC H10Y HAL2           0.09         1.008       0
   24848 MEMB 96   POPC C311 CTL2          -0.18        12.011       0
   24849 MEMB 96   POPC H11X HAL2           0.09         1.008       0
   24850 MEMB 96   POPC H11Y HAL2           0.09         1.008       0
   24851 MEMB 96   POPC C312 CTL2          -0.18        12.011       0
   24852 MEMB 96   POPC H12X HAL2           0.09         1.008       0
   24853 MEMB 96   POPC H12Y HAL2           0.09         1.008       0
   24854 MEMB 96   POPC C313 CTL2          -0.18        12.011       0
   24855 MEMB 96   POPC H13X HAL2           0.09         1.008       0
   24856 MEMB 96   POPC H13Y HAL2           0.09         1.008       0
   24857 MEMB 96   POPC C314 CTL2          -0.18        12.011       0
   24858 MEMB 96   POPC H14X HAL2           0.09         1.008       0
   24859 MEMB 96   POPC H14Y HAL2           0.09         1.008       0
   24860 MEMB 96   POPC C315 CTL2          -0.18        12.011       0
   24861 MEMB 96   POPC H15X HAL2           0.09         1.008       0
   24862 MEMB 96   POPC H15Y HAL2           0.09         1.008       0
   24863 MEMB 96   POPC C316 CTL3          -0.27        12.011       0
   24864 MEMB 96   POPC H16X HAL3           0.09         1.008       0
   24865 MEMB 96   POPC H16Y HAL3           0.09         1.008       0
   24866 MEMB 96   POPC H16Z HAL3           0.09         1.008       0
   24867 MEMB 97   POPE N    NH3L           -0.3        14.007       0
   24868 MEMB 97   POPE HN1  HCL            0.33         1.008       0
   24869 MEMB 97   POPE HN2  HCL            0.33         1.008       0
   24870 MEMB 97   POPE HN3  HCL            0.33         1.008       0
   24871 MEMB 97   POPE C12  CTL2           0.13        12.011       0
   24872 MEMB 97   POPE H12A HAL2           0.09         1.008       0
   24873 MEMB 97   POPE H12B HAL2           0.09         1.008       0
   24874 MEMB 97   POPE C11  CTL2          -0.08        12.011       0
   24875 MEMB 97   POPE H11A HAL2           0.09         1.008       0
   24876 MEMB 97   POPE H11B HAL2           0.09         1.008       0
   24877 MEMB 97   POPE P    PL              1.5        30.974       0
   24878 MEMB 97   POPE O13  O2L           -0.78       15.9994       0
   24879 MEMB 97   POPE O14  O2L           -0.78       15.9994       0
   24880 MEMB 97   POPE O11  OSLP          -0.57       15.9994       0
   24881 MEMB 97   POPE O12  OSLP          -0.57       15.9994       0
   24882 MEMB 97   POPE C1   CTL2          -0.08        12.011       0
   24883 MEMB 97   POPE HA   HAL2           0.09         1.008       0
   24884 MEMB 97   POPE HB   HAL2           0.09         1.008       0
   24885 MEMB 97   POPE C2   CTL1           0.17        12.011       0
   24886 MEMB 97   POPE HS   HAL1           0.09         1.008       0
   24887 MEMB 97   POPE O21  OSL           -0.49       15.9994       0
   24888 MEMB 97   POPE C21  CL              0.9        12.011       0
   24889 MEMB 97   POPE O22  OBL           -0.63       15.9994       0
   24890 MEMB 97   POPE C22  CTL2          -0.22        12.011       0
   24891 MEMB 97   POPE H2R  HAL2           0.09         1.008       0
   24892 MEMB 97   POPE H2S  HAL2           0.09         1.008       0
   24893 MEMB 97   POPE C3   CTL2           0.08        12.011       0
   24894 MEMB 97   POPE HX   HAL2           0.09         1.008       0
   24895 MEMB 97   POPE HY   HAL2           0.09         1.008       0
   24896 MEMB 97   POPE O31  OSL           -0.49       15.9994       0
   24897 MEMB 97   POPE C31  CL              0.9        12.011       0
   24898 MEMB 97   POPE O32  OBL           -0.63       15.9994       0
   24899 MEMB 97   POPE C32  CTL2          -0.22        12.011       0
   24900 MEMB 97   POPE H2X  HAL2           0.09         1.008       0
   24901 MEMB 97   POPE H2Y  HAL2           0.09         1.008       0
   24902 MEMB 97   POPE C23  CTL2          -0.18        12.011       0
   24903 MEMB 97   POPE H3R  HAL2           0.09         1.008       0
   24904 MEMB 97   POPE H3S  HAL2           0.09         1.008       0
   24905 MEMB 97   POPE C24  CTL2          -0.18        12.011       0
   24906 MEMB 97   POPE H4R  HAL2           0.09         1.008       0
   24907 MEMB 97   POPE H4S  HAL2           0.09         1.008       0
   24908 MEMB 97   POPE C25  CTL2          -0.18        12.011       0
   24909 MEMB 97   POPE H5R  HAL2           0.09         1.008       0
   24910 MEMB 97   POPE H5S  HAL2           0.09         1.008       0
   24911 MEMB 97   POPE C26  CTL2          -0.18        12.011       0
   24912 MEMB 97   POPE H6R  HAL2           0.09         1.008       0
   24913 MEMB 97   POPE H6S  HAL2           0.09         1.008       0
   24914 MEMB 97   POPE C27  CTL2          -0.18        12.011       0
   24915 MEMB 97   POPE H7R  HAL2           0.09         1.008       0
   24916 MEMB 97   POPE H7S  HAL2           0.09         1.008       0
   24917 MEMB 97   POPE C28  CTL2          -0.18        12.011       0
   24918 MEMB 97   POPE H8R  HAL2           0.09         1.008       0
   24919 MEMB 97   POPE H8S  HAL2           0.09         1.008       0
   24920 MEMB 97   POPE C29  CEL1          -0.15        12.011       0
   24921 MEMB 97   POPE H91  HEL1           0.15         1.008       0
   24922 MEMB 97   POPE C210 CEL1          -0.15        12.011       0
   24923 MEMB 97   POPE H101 HEL1           0.15         1.008       0
   24924 MEMB 97   POPE C211 CTL2          -0.18        12.011       0
   24925 MEMB 97   POPE H11R HAL2           0.09         1.008       0
   24926 MEMB 97   POPE H11S HAL2           0.09         1.008       0
   24927 MEMB 97   POPE C212 CTL2          -0.18        12.011       0
   24928 MEMB 97   POPE H12R HAL2           0.09         1.008       0
   24929 MEMB 97   POPE H12S HAL2           0.09         1.008       0
   24930 MEMB 97   POPE C213 CTL2          -0.18        12.011       0
   24931 MEMB 97   POPE H13R HAL2           0.09         1.008       0
   24932 MEMB 97   POPE H13S HAL2           0.09         1.008       0
   24933 MEMB 97   POPE C214 CTL2          -0.18        12.011       0
   24934 MEMB 97   POPE H14R HAL2           0.09         1.008       0
   24935 MEMB 97   POPE H14S HAL2           0.09         1.008       0
   24936 MEMB 97   POPE C215 CTL2          -0.18        12.011       0
   24937 MEMB 97   POPE H15R HAL2           0.09         1.008       0
   24938 MEMB 97   POPE H15S HAL2           0.09         1.008       0
   24939 MEMB 97   POPE C216 CTL2          -0.18        12.011       0
   24940 MEMB 97   POPE H16R HAL2           0.09         1.008       0
   24941 MEMB 97   POPE H16S HAL2           0.09         1.008       0
   24942 MEMB 97   POPE C217 CTL2          -0.18        12.011       0
   24943 MEMB 97   POPE H17R HAL2           0.09         1.008       0
   24944 MEMB 97   POPE H17S HAL2           0.09         1.008       0
   24945 MEMB 97   POPE C218 CTL3          -0.27        12.011       0
   24946 MEMB 97   POPE H18R HAL3           0.09         1.008       0
   24947 MEMB 97   POPE H18S HAL3           0.09         1.008       0
   24948 MEMB 97   POPE H18T HAL3           0.09         1.008       0
   24949 MEMB 97   POPE C33  CTL2          -0.18        12.011       0
   24950 MEMB 97   POPE H3X  HAL2           0.09         1.008       0
   24951 MEMB 97   POPE H3Y  HAL2           0.09         1.008       0
   24952 MEMB 97   POPE C34  CTL2          -0.18        12.011       0
   24953 MEMB 97   POPE H4X  HAL2           0.09         1.008       0
   24954 MEMB 97   POPE H4Y  HAL2           0.09         1.008       0
   24955 MEMB 97   POPE C35  CTL2          -0.18        12.011       0
   24956 MEMB 97   POPE H5X  HAL2           0.09         1.008       0
   24957 MEMB 97   POPE H5Y  HAL2           0.09         1.008       0
   24958 MEMB 97   POPE C36  CTL2          -0.18        12.011       0
   24959 MEMB 97   POPE H6X  HAL2           0.09         1.008       0
   24960 MEMB 97   POPE H6Y  HAL2           0.09         1.008       0
   24961 MEMB 97   POPE C37  CTL2          -0.18        12.011       0
   24962 MEMB 97   POPE H7X  HAL2           0.09         1.008       0
   24963 MEMB 97   POPE H7Y  HAL2           0.09         1.008       0
   24964 MEMB 97   POPE C38  CTL2          -0.18        12.011       0
   24965 MEMB 97   POPE H8X  HAL2           0.09         1.008       0
   24966 MEMB 97   POPE H8Y  HAL2           0.09         1.008       0
   24967 MEMB 97   POPE C39  CTL2          -0.18        12.011       0
   24968 MEMB 97   POPE H9X  HAL2           0.09         1.008       0
   24969 MEMB 97   POPE H9Y  HAL2           0.09         1.008       0
   24970 MEMB 97   POPE C310 CTL2          -0.18        12.011       0
   24971 MEMB 97   POPE H10X HAL2           0.09         1.008       0
   24972 MEMB 97   POPE H10Y HAL2           0.09         1.008       0
   24973 MEMB 97   POPE C311 CTL2          -0.18        12.011       0
   24974 MEMB 97   POPE H11X HAL2           0.09         1.008       0
   24975 MEMB 97   POPE H11Y HAL2           0.09         1.008       0
   24976 MEMB 97   POPE C312 CTL2          -0.18        12.011       0
   24977 MEMB 97   POPE H12X HAL2           0.09         1.008       0
   24978 MEMB 97   POPE H12Y HAL2           0.09         1.008       0
   24979 MEMB 97   POPE C313 CTL2          -0.18        12.011       0
   24980 MEMB 97   POPE H13X HAL2           0.09         1.008       0
   24981 MEMB 97   POPE H13Y HAL2           0.09         1.008       0
   24982 MEMB 97   POPE C314 CTL2          -0.18        12.011       0
   24983 MEMB 97   POPE H14X HAL2           0.09         1.008       0
   24984 MEMB 97   POPE H14Y HAL2           0.09         1.008       0
   24985 MEMB 97   POPE C315 CTL2          -0.18        12.011       0
   24986 MEMB 97   POPE H15X HAL2           0.09         1.008       0
   24987 MEMB 97   POPE H15Y HAL2           0.09         1.008       0
   24988 MEMB 97   POPE C316 CTL3          -0.27        12.011       0
   24989 MEMB 97   POPE H16X HAL3           0.09         1.008       0
   24990 MEMB 97   POPE H16Y HAL3           0.09         1.008       0
   24991 MEMB 97   POPE H16Z HAL3           0.09         1.008       0
   24992 MEMB 98   POPE N    NH3L           -0.3        14.007       0
   24993 MEMB 98   POPE HN1  HCL            0.33         1.008       0
   24994 MEMB 98   POPE HN2  HCL            0.33         1.008       0
   24995 MEMB 98   POPE HN3  HCL            0.33         1.008       0
   24996 MEMB 98   POPE C12  CTL2           0.13        12.011       0
   24997 MEMB 98   POPE H12A HAL2           0.09         1.008       0
   24998 MEMB 98   POPE H12B HAL2           0.09         1.008       0
   24999 MEMB 98   POPE C11  CTL2          -0.08        12.011       0
   25000 MEMB 98   POPE H11A HAL2           0.09         1.008       0
   25001 MEMB 98   POPE H11B HAL2           0.09         1.008       0
   25002 MEMB 98   POPE P    PL              1.5        30.974       0
   25003 MEMB 98   POPE O13  O2L           -0.78       15.9994       0
   25004 MEMB 98   POPE O14  O2L           -0.78       15.9994       0
   25005 MEMB 98   POPE O11  OSLP          -0.57       15.9994       0
   25006 MEMB 98   POPE O12  OSLP          -0.57       15.9994       0
   25007 MEMB 98   POPE C1   CTL2          -0.08        12.011       0
   25008 MEMB 98   POPE HA   HAL2           0.09         1.008       0
   25009 MEMB 98   POPE HB   HAL2           0.09         1.008       0
   25010 MEMB 98   POPE C2   CTL1           0.17        12.011       0
   25011 MEMB 98   POPE HS   HAL1           0.09         1.008       0
   25012 MEMB 98   POPE O21  OSL           -0.49       15.9994       0
   25013 MEMB 98   POPE C21  CL              0.9        12.011       0
   25014 MEMB 98   POPE O22  OBL           -0.63       15.9994       0
   25015 MEMB 98   POPE C22  CTL2          -0.22        12.011       0
   25016 MEMB 98   POPE H2R  HAL2           0.09         1.008       0
   25017 MEMB 98   POPE H2S  HAL2           0.09         1.008       0
   25018 MEMB 98   POPE C3   CTL2           0.08        12.011       0
   25019 MEMB 98   POPE HX   HAL2           0.09         1.008       0
   25020 MEMB 98   POPE HY   HAL2           0.09         1.008       0
   25021 MEMB 98   POPE O31  OSL           -0.49       15.9994       0
   25022 MEMB 98   POPE C31  CL              0.9        12.011       0
   25023 MEMB 98   POPE O32  OBL           -0.63       15.9994       0
   25024 MEMB 98   POPE C32  CTL2          -0.22        12.011       0
   25025 MEMB 98   POPE H2X  HAL2           0.09         1.008       0
   25026 MEMB 98   POPE H2Y  HAL2           0.09         1.008       0
   25027 MEMB 98   POPE C23  CTL2          -0.18        12.011       0
   25028 MEMB 98   POPE H3R  HAL2           0.09         1.008       0
   25029 MEMB 98   POPE H3S  HAL2           0.09         1.008       0
   25030 MEMB 98   POPE C24  CTL2          -0.18        12.011       0
   25031 MEMB 98   POPE H4R  HAL2           0.09         1.008       0
   25032 MEMB 98   POPE H4S  HAL2           0.09         1.008       0
   25033 MEMB 98   POPE C25  CTL2          -0.18        12.011       0
   25034 MEMB 98   POPE H5R  HAL2           0.09         1.008       0
   25035 MEMB 98   POPE H5S  HAL2           0.09         1.008       0
   25036 MEMB 98   POPE C26  CTL2          -0.18        12.011       0
   25037 MEMB 98   POPE H6R  HAL2           0.09         1.008       0
   25038 MEMB 98   POPE H6S  HAL2           0.09         1.008       0
   25039 MEMB 98   POPE C27  CTL2          -0.18        12.011       0
   25040 MEMB 98   POPE H7R  HAL2           0.09         1.008       0
   25041 MEMB 98   POPE H7S  HAL2           0.09         1.008       0
   25042 MEMB 98   POPE C28  CTL2          -0.18        12.011       0
   25043 MEMB 98   POPE H8R  HAL2           0.09         1.008       0
   25044 MEMB 98   POPE H8S  HAL2           0.09         1.008       0
   25045 MEMB 98   POPE C29  CEL1          -0.15        12.011       0
   25046 MEMB 98   POPE H91  HEL1           0.15         1.008       0
   25047 MEMB 98   POPE C210 CEL1          -0.15        12.011       0
   25048 MEMB 98   POPE H101 HEL1           0.15         1.008       0
   25049 MEMB 98   POPE C211 CTL2          -0.18        12.011       0
   25050 MEMB 98   POPE H11R HAL2           0.09         1.008       0
   25051 MEMB 98   POPE H11S HAL2           0.09         1.008       0
   25052 MEMB 98   POPE C212 CTL2          -0.18        12.011       0
   25053 MEMB 98   POPE H12R HAL2           0.09         1.008       0
   25054 MEMB 98   POPE H12S HAL2           0.09         1.008       0
   25055 MEMB 98   POPE C213 CTL2          -0.18        12.011       0
   25056 MEMB 98   POPE H13R HAL2           0.09         1.008       0
   25057 MEMB 98   POPE H13S HAL2           0.09         1.008       0
   25058 MEMB 98   POPE C214 CTL2          -0.18        12.011       0
   25059 MEMB 98   POPE H14R HAL2           0.09         1.008       0
   25060 MEMB 98   POPE H14S HAL2           0.09         1.008       0
   25061 MEMB 98   POPE C215 CTL2          -0.18        12.011       0
   25062 MEMB 98   POPE H15R HAL2           0.09         1.008       0
   25063 MEMB 98   POPE H15S HAL2           0.09         1.008       0
   25064 MEMB 98   POPE C216 CTL2          -0.18        12.011       0
   25065 MEMB 98   POPE H16R HAL2           0.09         1.008       0
   25066 MEMB 98   POPE H16S HAL2           0.09         1.008       0
   25067 MEMB 98   POPE C217 CTL2          -0.18        12.011       0
   25068 MEMB 98   POPE H17R HAL2           0.09         1.008       0
   25069 MEMB 98   POPE H17S HAL2           0.09         1.008       0
   25070 MEMB 98   POPE C218 CTL3          -0.27        12.011       0
   25071 MEMB 98   POPE H18R HAL3           0.09         1.008       0
   25072 MEMB 98   POPE H18S HAL3           0.09         1.008       0
   25073 MEMB 98   POPE H18T HAL3           0.09         1.008       0
   25074 MEMB 98   POPE C33  CTL2          -0.18        12.011       0
   25075 MEMB 98   POPE H3X  HAL2           0.09         1.008       0
   25076 MEMB 98   POPE H3Y  HAL2           0.09         1.008       0
   25077 MEMB 98   POPE C34  CTL2          -0.18        12.011       0
   25078 MEMB 98   POPE H4X  HAL2           0.09         1.008       0
   25079 MEMB 98   POPE H4Y  HAL2           0.09         1.008       0
   25080 MEMB 98   POPE C35  CTL2          -0.18        12.011       0
   25081 MEMB 98   POPE H5X  HAL2           0.09         1.008       0
   25082 MEMB 98   POPE H5Y  HAL2           0.09         1.008       0
   25083 MEMB 98   POPE C36  CTL2          -0.18        12.011       0
   25084 MEMB 98   POPE H6X  HAL2           0.09         1.008       0
   25085 MEMB 98   POPE H6Y  HAL2           0.09         1.008       0
   25086 MEMB 98   POPE C37  CTL2          -0.18        12.011       0
   25087 MEMB 98   POPE H7X  HAL2           0.09         1.008       0
   25088 MEMB 98   POPE H7Y  HAL2           0.09         1.008       0
   25089 MEMB 98   POPE C38  CTL2          -0.18        12.011       0
   25090 MEMB 98   POPE H8X  HAL2           0.09         1.008       0
   25091 MEMB 98   POPE H8Y  HAL2           0.09         1.008       0
   25092 MEMB 98   POPE C39  CTL2          -0.18        12.011       0
   25093 MEMB 98   POPE H9X  HAL2           0.09         1.008       0
   25094 MEMB 98   POPE H9Y  HAL2           0.09         1.008       0
   25095 MEMB 98   POPE C310 CTL2          -0.18        12.011       0
   25096 MEMB 98   POPE H10X HAL2           0.09         1.008       0
   25097 MEMB 98   POPE H10Y HAL2           0.09         1.008       0
   25098 MEMB 98   POPE C311 CTL2          -0.18        12.011       0
   25099 MEMB 98   POPE H11X HAL2           0.09         1.008       0
   25100 MEMB 98   POPE H11Y HAL2           0.09         1.008       0
   25101 MEMB 98   POPE C312 CTL2          -0.18        12.011       0
   25102 MEMB 98   POPE H12X HAL2           0.09         1.008       0
   25103 MEMB 98   POPE H12Y HAL2           0.09         1.008       0
   25104 MEMB 98   POPE C313 CTL2          -0.18        12.011       0
   25105 MEMB 98   POPE H13X HAL2           0.09         1.008       0
   25106 MEMB 98   POPE H13Y HAL2           0.09         1.008       0
   25107 MEMB 98   POPE C314 CTL2          -0.18        12.011       0
   25108 MEMB 98   POPE H14X HAL2           0.09         1.008       0
   25109 MEMB 98   POPE H14Y HAL2           0.09         1.008       0
   25110 MEMB 98   POPE C315 CTL2          -0.18        12.011       0
   25111 MEMB 98   POPE H15X HAL2           0.09         1.008       0
   25112 MEMB 98   POPE H15Y HAL2           0.09         1.008       0
   25113 MEMB 98   POPE C316 CTL3          -0.27        12.011       0
   25114 MEMB 98   POPE H16X HAL3           0.09         1.008       0
   25115 MEMB 98   POPE H16Y HAL3           0.09         1.008       0
   25116 MEMB 98   POPE H16Z HAL3           0.09         1.008       0
   25117 MEMB 99   POPE N    NH3L           -0.3        14.007       0
   25118 MEMB 99   POPE HN1  HCL            0.33         1.008       0
   25119 MEMB 99   POPE HN2  HCL            0.33         1.008       0
   25120 MEMB 99   POPE HN3  HCL            0.33         1.008       0
   25121 MEMB 99   POPE C12  CTL2           0.13        12.011       0
   25122 MEMB 99   POPE H12A HAL2           0.09         1.008       0
   25123 MEMB 99   POPE H12B HAL2           0.09         1.008       0
   25124 MEMB 99   POPE C11  CTL2          -0.08        12.011       0
   25125 MEMB 99   POPE H11A HAL2           0.09         1.008       0
   25126 MEMB 99   POPE H11B HAL2           0.09         1.008       0
   25127 MEMB 99   POPE P    PL              1.5        30.974       0
   25128 MEMB 99   POPE O13  O2L           -0.78       15.9994       0
   25129 MEMB 99   POPE O14  O2L           -0.78       15.9994       0
   25130 MEMB 99   POPE O11  OSLP          -0.57       15.9994       0
   25131 MEMB 99   POPE O12  OSLP          -0.57       15.9994       0
   25132 MEMB 99   POPE C1   CTL2          -0.08        12.011       0
   25133 MEMB 99   POPE HA   HAL2           0.09         1.008       0
   25134 MEMB 99   POPE HB   HAL2           0.09         1.008       0
   25135 MEMB 99   POPE C2   CTL1           0.17        12.011       0
   25136 MEMB 99   POPE HS   HAL1           0.09         1.008       0
   25137 MEMB 99   POPE O21  OSL           -0.49       15.9994       0
   25138 MEMB 99   POPE C21  CL              0.9        12.011       0
   25139 MEMB 99   POPE O22  OBL           -0.63       15.9994       0
   25140 MEMB 99   POPE C22  CTL2          -0.22        12.011       0
   25141 MEMB 99   POPE H2R  HAL2           0.09         1.008       0
   25142 MEMB 99   POPE H2S  HAL2           0.09         1.008       0
   25143 MEMB 99   POPE C3   CTL2           0.08        12.011       0
   25144 MEMB 99   POPE HX   HAL2           0.09         1.008       0
   25145 MEMB 99   POPE HY   HAL2           0.09         1.008       0
   25146 MEMB 99   POPE O31  OSL           -0.49       15.9994       0
   25147 MEMB 99   POPE C31  CL              0.9        12.011       0
   25148 MEMB 99   POPE O32  OBL           -0.63       15.9994       0
   25149 MEMB 99   POPE C32  CTL2          -0.22        12.011       0
   25150 MEMB 99   POPE H2X  HAL2           0.09         1.008       0
   25151 MEMB 99   POPE H2Y  HAL2           0.09         1.008       0
   25152 MEMB 99   POPE C23  CTL2          -0.18        12.011       0
   25153 MEMB 99   POPE H3R  HAL2           0.09         1.008       0
   25154 MEMB 99   POPE H3S  HAL2           0.09         1.008       0
   25155 MEMB 99   POPE C24  CTL2          -0.18        12.011       0
   25156 MEMB 99   POPE H4R  HAL2           0.09         1.008       0
   25157 MEMB 99   POPE H4S  HAL2           0.09         1.008       0
   25158 MEMB 99   POPE C25  CTL2          -0.18        12.011       0
   25159 MEMB 99   POPE H5R  HAL2           0.09         1.008       0
   25160 MEMB 99   POPE H5S  HAL2           0.09         1.008       0
   25161 MEMB 99   POPE C26  CTL2          -0.18        12.011       0
   25162 MEMB 99   POPE H6R  HAL2           0.09         1.008       0
   25163 MEMB 99   POPE H6S  HAL2           0.09         1.008       0
   25164 MEMB 99   POPE C27  CTL2          -0.18        12.011       0
   25165 MEMB 99   POPE H7R  HAL2           0.09         1.008       0
   25166 MEMB 99   POPE H7S  HAL2           0.09         1.008       0
   25167 MEMB 99   POPE C28  CTL2          -0.18        12.011       0
   25168 MEMB 99   POPE H8R  HAL2           0.09         1.008       0
   25169 MEMB 99   POPE H8S  HAL2           0.09         1.008       0
   25170 MEMB 99   POPE C29  CEL1          -0.15        12.011       0
   25171 MEMB 99   POPE H91  HEL1           0.15         1.008       0
   25172 MEMB 99   POPE C210 CEL1          -0.15        12.011       0
   25173 MEMB 99   POPE H101 HEL1           0.15         1.008       0
   25174 MEMB 99   POPE C211 CTL2          -0.18        12.011       0
   25175 MEMB 99   POPE H11R HAL2           0.09         1.008       0
   25176 MEMB 99   POPE H11S HAL2           0.09         1.008       0
   25177 MEMB 99   POPE C212 CTL2          -0.18        12.011       0
   25178 MEMB 99   POPE H12R HAL2           0.09         1.008       0
   25179 MEMB 99   POPE H12S HAL2           0.09         1.008       0
   25180 MEMB 99   POPE C213 CTL2          -0.18        12.011       0
   25181 MEMB 99   POPE H13R HAL2           0.09         1.008       0
   25182 MEMB 99   POPE H13S HAL2           0.09         1.008       0
   25183 MEMB 99   POPE C214 CTL2          -0.18        12.011       0
   25184 MEMB 99   POPE H14R HAL2           0.09         1.008       0
   25185 MEMB 99   POPE H14S HAL2           0.09         1.008       0
   25186 MEMB 99   POPE C215 CTL2          -0.18        12.011       0
   25187 MEMB 99   POPE H15R HAL2           0.09         1.008       0
   25188 MEMB 99   POPE H15S HAL2           0.09         1.008       0
   25189 MEMB 99   POPE C216 CTL2          -0.18        12.011       0
   25190 MEMB 99   POPE H16R HAL2           0.09         1.008       0
   25191 MEMB 99   POPE H16S HAL2           0.09         1.008       0
   25192 MEMB 99   POPE C217 CTL2          -0.18        12.011       0
   25193 MEMB 99   POPE H17R HAL2           0.09         1.008       0
   25194 MEMB 99   POPE H17S HAL2           0.09         1.008       0
   25195 MEMB 99   POPE C218 CTL3          -0.27        12.011       0
   25196 MEMB 99   POPE H18R HAL3           0.09         1.008       0
   25197 MEMB 99   POPE H18S HAL3           0.09         1.008       0
   25198 MEMB 99   POPE H18T HAL3           0.09         1.008       0
   25199 MEMB 99   POPE C33  CTL2          -0.18        12.011       0
   25200 MEMB 99   POPE H3X  HAL2           0.09         1.008       0
   25201 MEMB 99   POPE H3Y  HAL2           0.09         1.008       0
   25202 MEMB 99   POPE C34  CTL2          -0.18        12.011       0
   25203 MEMB 99   POPE H4X  HAL2           0.09         1.008       0
   25204 MEMB 99   POPE H4Y  HAL2           0.09         1.008       0
   25205 MEMB 99   POPE C35  CTL2          -0.18        12.011       0
   25206 MEMB 99   POPE H5X  HAL2           0.09         1.008       0
   25207 MEMB 99   POPE H5Y  HAL2           0.09         1.008       0
   25208 MEMB 99   POPE C36  CTL2          -0.18        12.011       0
   25209 MEMB 99   POPE H6X  HAL2           0.09         1.008       0
   25210 MEMB 99   POPE H6Y  HAL2           0.09         1.008       0
   25211 MEMB 99   POPE C37  CTL2          -0.18        12.011       0
   25212 MEMB 99   POPE H7X  HAL2           0.09         1.008       0
   25213 MEMB 99   POPE H7Y  HAL2           0.09         1.008       0
   25214 MEMB 99   POPE C38  CTL2          -0.18        12.011       0
   25215 MEMB 99   POPE H8X  HAL2           0.09         1.008       0
   25216 MEMB 99   POPE H8Y  HAL2           0.09         1.008       0
   25217 MEMB 99   POPE C39  CTL2          -0.18        12.011       0
   25218 MEMB 99   POPE H9X  HAL2           0.09         1.008       0
   25219 MEMB 99   POPE H9Y  HAL2           0.09         1.008       0
   25220 MEMB 99   POPE C310 CTL2          -0.18        12.011       0
   25221 MEMB 99   POPE H10X HAL2           0.09         1.008       0
   25222 MEMB 99   POPE H10Y HAL2           0.09         1.008       0
   25223 MEMB 99   POPE C311 CTL2          -0.18        12.011       0
   25224 MEMB 99   POPE H11X HAL2           0.09         1.008       0
   25225 MEMB 99   POPE H11Y HAL2           0.09         1.008       0
   25226 MEMB 99   POPE C312 CTL2          -0.18        12.011       0
   25227 MEMB 99   POPE H12X HAL2           0.09         1.008       0
   25228 MEMB 99   POPE H12Y HAL2           0.09         1.008       0
   25229 MEMB 99   POPE C313 CTL2          -0.18        12.011       0
   25230 MEMB 99   POPE H13X HAL2           0.09         1.008       0
   25231 MEMB 99   POPE H13Y HAL2           0.09         1.008       0
   25232 MEMB 99   POPE C314 CTL2          -0.18        12.011       0
   25233 MEMB 99   POPE H14X HAL2           0.09         1.008       0
   25234 MEMB 99   POPE H14Y HAL2           0.09         1.008       0
   25235 MEMB 99   POPE C315 CTL2          -0.18        12.011       0
   25236 MEMB 99   POPE H15X HAL2           0.09         1.008       0
   25237 MEMB 99   POPE H15Y HAL2           0.09         1.008       0
   25238 MEMB 99   POPE C316 CTL3          -0.27        12.011       0
   25239 MEMB 99   POPE H16X HAL3           0.09         1.008       0
   25240 MEMB 99   POPE H16Y HAL3           0.09         1.008       0
   25241 MEMB 99   POPE H16Z HAL3           0.09         1.008       0
   25242 MEMB 100  POPE N    NH3L           -0.3        14.007       0
   25243 MEMB 100  POPE HN1  HCL            0.33         1.008       0
   25244 MEMB 100  POPE HN2  HCL            0.33         1.008       0
   25245 MEMB 100  POPE HN3  HCL            0.33         1.008       0
   25246 MEMB 100  POPE C12  CTL2           0.13        12.011       0
   25247 MEMB 100  POPE H12A HAL2           0.09         1.008       0
   25248 MEMB 100  POPE H12B HAL2           0.09         1.008       0
   25249 MEMB 100  POPE C11  CTL2          -0.08        12.011       0
   25250 MEMB 100  POPE H11A HAL2           0.09         1.008       0
   25251 MEMB 100  POPE H11B HAL2           0.09         1.008       0
   25252 MEMB 100  POPE P    PL              1.5        30.974       0
   25253 MEMB 100  POPE O13  O2L           -0.78       15.9994       0
   25254 MEMB 100  POPE O14  O2L           -0.78       15.9994       0
   25255 MEMB 100  POPE O11  OSLP          -0.57       15.9994       0
   25256 MEMB 100  POPE O12  OSLP          -0.57       15.9994       0
   25257 MEMB 100  POPE C1   CTL2          -0.08        12.011       0
   25258 MEMB 100  POPE HA   HAL2           0.09         1.008       0
   25259 MEMB 100  POPE HB   HAL2           0.09         1.008       0
   25260 MEMB 100  POPE C2   CTL1           0.17        12.011       0
   25261 MEMB 100  POPE HS   HAL1           0.09         1.008       0
   25262 MEMB 100  POPE O21  OSL           -0.49       15.9994       0
   25263 MEMB 100  POPE C21  CL              0.9        12.011       0
   25264 MEMB 100  POPE O22  OBL           -0.63       15.9994       0
   25265 MEMB 100  POPE C22  CTL2          -0.22        12.011       0
   25266 MEMB 100  POPE H2R  HAL2           0.09         1.008       0
   25267 MEMB 100  POPE H2S  HAL2           0.09         1.008       0
   25268 MEMB 100  POPE C3   CTL2           0.08        12.011       0
   25269 MEMB 100  POPE HX   HAL2           0.09         1.008       0
   25270 MEMB 100  POPE HY   HAL2           0.09         1.008       0
   25271 MEMB 100  POPE O31  OSL           -0.49       15.9994       0
   25272 MEMB 100  POPE C31  CL              0.9        12.011       0
   25273 MEMB 100  POPE O32  OBL           -0.63       15.9994       0
   25274 MEMB 100  POPE C32  CTL2          -0.22        12.011       0
   25275 MEMB 100  POPE H2X  HAL2           0.09         1.008       0
   25276 MEMB 100  POPE H2Y  HAL2           0.09         1.008       0
   25277 MEMB 100  POPE C23  CTL2          -0.18        12.011       0
   25278 MEMB 100  POPE H3R  HAL2           0.09         1.008       0
   25279 MEMB 100  POPE H3S  HAL2           0.09         1.008       0
   25280 MEMB 100  POPE C24  CTL2          -0.18        12.011       0
   25281 MEMB 100  POPE H4R  HAL2           0.09         1.008       0
   25282 MEMB 100  POPE H4S  HAL2           0.09         1.008       0
   25283 MEMB 100  POPE C25  CTL2          -0.18        12.011       0
   25284 MEMB 100  POPE H5R  HAL2           0.09         1.008       0
   25285 MEMB 100  POPE H5S  HAL2           0.09         1.008       0
   25286 MEMB 100  POPE C26  CTL2          -0.18        12.011       0
   25287 MEMB 100  POPE H6R  HAL2           0.09         1.008       0
   25288 MEMB 100  POPE H6S  HAL2           0.09         1.008       0
   25289 MEMB 100  POPE C27  CTL2          -0.18        12.011       0
   25290 MEMB 100  POPE H7R  HAL2           0.09         1.008       0
   25291 MEMB 100  POPE H7S  HAL2           0.09         1.008       0
   25292 MEMB 100  POPE C28  CTL2          -0.18        12.011       0
   25293 MEMB 100  POPE H8R  HAL2           0.09         1.008       0
   25294 MEMB 100  POPE H8S  HAL2           0.09         1.008       0
   25295 MEMB 100  POPE C29  CEL1          -0.15        12.011       0
   25296 MEMB 100  POPE H91  HEL1           0.15         1.008       0
   25297 MEMB 100  POPE C210 CEL1          -0.15        12.011       0
   25298 MEMB 100  POPE H101 HEL1           0.15         1.008       0
   25299 MEMB 100  POPE C211 CTL2          -0.18        12.011       0
   25300 MEMB 100  POPE H11R HAL2           0.09         1.008       0
   25301 MEMB 100  POPE H11S HAL2           0.09         1.008       0
   25302 MEMB 100  POPE C212 CTL2          -0.18        12.011       0
   25303 MEMB 100  POPE H12R HAL2           0.09         1.008       0
   25304 MEMB 100  POPE H12S HAL2           0.09         1.008       0
   25305 MEMB 100  POPE C213 CTL2          -0.18        12.011       0
   25306 MEMB 100  POPE H13R HAL2           0.09         1.008       0
   25307 MEMB 100  POPE H13S HAL2           0.09         1.008       0
   25308 MEMB 100  POPE C214 CTL2          -0.18        12.011       0
   25309 MEMB 100  POPE H14R HAL2           0.09         1.008       0
   25310 MEMB 100  POPE H14S HAL2           0.09         1.008       0
   25311 MEMB 100  POPE C215 CTL2          -0.18        12.011       0
   25312 MEMB 100  POPE H15R HAL2           0.09         1.008       0
   25313 MEMB 100  POPE H15S HAL2           0.09         1.008       0
   25314 MEMB 100  POPE C216 CTL2          -0.18        12.011       0
   25315 MEMB 100  POPE H16R HAL2           0.09         1.008       0
   25316 MEMB 100  POPE H16S HAL2           0.09         1.008       0
   25317 MEMB 100  POPE C217 CTL2          -0.18        12.011       0
   25318 MEMB 100  POPE H17R HAL2           0.09         1.008       0
   25319 MEMB 100  POPE H17S HAL2           0.09         1.008       0
   25320 MEMB 100  POPE C218 CTL3          -0.27        12.011       0
   25321 MEMB 100  POPE H18R HAL3           0.09         1.008       0
   25322 MEMB 100  POPE H18S HAL3           0.09         1.008       0
   25323 MEMB 100  POPE H18T HAL3           0.09         1.008       0
   25324 MEMB 100  POPE C33  CTL2          -0.18        12.011       0
   25325 MEMB 100  POPE H3X  HAL2           0.09         1.008       0
   25326 MEMB 100  POPE H3Y  HAL2           0.09         1.008       0
   25327 MEMB 100  POPE C34  CTL2          -0.18        12.011       0
   25328 MEMB 100  POPE H4X  HAL2           0.09         1.008       0
   25329 MEMB 100  POPE H4Y  HAL2           0.09         1.008       0
   25330 MEMB 100  POPE C35  CTL2          -0.18        12.011       0
   25331 MEMB 100  POPE H5X  HAL2           0.09         1.008       0
   25332 MEMB 100  POPE H5Y  HAL2           0.09         1.008       0
   25333 MEMB 100  POPE C36  CTL2          -0.18        12.011       0
   25334 MEMB 100  POPE H6X  HAL2           0.09         1.008       0
   25335 MEMB 100  POPE H6Y  HAL2           0.09         1.008       0
   25336 MEMB 100  POPE C37  CTL2          -0.18        12.011       0
   25337 MEMB 100  POPE H7X  HAL2           0.09         1.008       0
   25338 MEMB 100  POPE H7Y  HAL2           0.09         1.008       0
   25339 MEMB 100  POPE C38  CTL2          -0.18        12.011       0
   25340 MEMB 100  POPE H8X  HAL2           0.09         1.008       0
   25341 MEMB 100  POPE H8Y  HAL2           0.09         1.008       0
   25342 MEMB 100  POPE C39  CTL2          -0.18        12.011       0
   25343 MEMB 100  POPE H9X  HAL2           0.09         1.008       0
   25344 MEMB 100  POPE H9Y  HAL2           0.09         1.008       0
   25345 MEMB 100  POPE C310 CTL2          -0.18        12.011       0
   25346 MEMB 100  POPE H10X HAL2           0.09         1.008       0
   25347 MEMB 100  POPE H10Y HAL2           0.09         1.008       0
   25348 MEMB 100  POPE C311 CTL2          -0.18        12.011       0
   25349 MEMB 100  POPE H11X HAL2           0.09         1.008       0
   25350 MEMB 100  POPE H11Y HAL2           0.09         1.008       0
   25351 MEMB 100  POPE C312 CTL2          -0.18        12.011       0
   25352 MEMB 100  POPE H12X HAL2           0.09         1.008       0
   25353 MEMB 100  POPE H12Y HAL2           0.09         1.008       0
   25354 MEMB 100  POPE C313 CTL2          -0.18        12.011       0
   25355 MEMB 100  POPE H13X HAL2           0.09         1.008       0
   25356 MEMB 100  POPE H13Y HAL2           0.09         1.008       0
   25357 MEMB 100  POPE C314 CTL2          -0.18        12.011       0
   25358 MEMB 100  POPE H14X HAL2           0.09         1.008       0
   25359 MEMB 100  POPE H14Y HAL2           0.09         1.008       0
   25360 MEMB 100  POPE C315 CTL2          -0.18        12.011       0
   25361 MEMB 100  POPE H15X HAL2           0.09         1.008       0
   25362 MEMB 100  POPE H15Y HAL2           0.09         1.008       0
   25363 MEMB 100  POPE C316 CTL3          -0.27        12.011       0
   25364 MEMB 100  POPE H16X HAL3           0.09         1.008       0
   25365 MEMB 100  POPE H16Y HAL3           0.09         1.008       0
   25366 MEMB 100  POPE H16Z HAL3           0.09         1.008       0
   25367 MEMB 101  PSM  N    NTL            -0.6        14.007       0
   25368 MEMB 101  PSM  C15  CTL5          -0.35        12.011       0
   25369 MEMB 101  PSM  H15A HL             0.25         1.008       0
   25370 MEMB 101  PSM  H15B HL             0.25         1.008       0
   25371 MEMB 101  PSM  H15C HL             0.25         1.008       0
   25372 MEMB 101  PSM  C14  CTL5          -0.35        12.011       0
   25373 MEMB 101  PSM  H14A HL             0.25         1.008       0
   25374 MEMB 101  PSM  H14B HL             0.25         1.008       0
   25375 MEMB 101  PSM  H14C HL             0.25         1.008       0
   25376 MEMB 101  PSM  C13  CTL5          -0.35        12.011       0
   25377 MEMB 101  PSM  H13A HL             0.25         1.008       0
   25378 MEMB 101  PSM  H13B HL             0.25         1.008       0
   25379 MEMB 101  PSM  H13C HL             0.25         1.008       0
   25380 MEMB 101  PSM  C12  CTL2           -0.1        12.011       0
   25381 MEMB 101  PSM  H12A HL             0.25         1.008       0
   25382 MEMB 101  PSM  H12B HL             0.25         1.008       0
   25383 MEMB 101  PSM  C11  CTL2          -0.08        12.011       0
   25384 MEMB 101  PSM  H11A HAL2           0.09         1.008       0
   25385 MEMB 101  PSM  H11B HAL2           0.09         1.008       0
   25386 MEMB 101  PSM  P    PL              1.5        30.974       0
   25387 MEMB 101  PSM  O13  O2L           -0.78       15.9994       0
   25388 MEMB 101  PSM  O14  O2L           -0.78       15.9994       0
   25389 MEMB 101  PSM  O11  OSLP          -0.57       15.9994       0
   25390 MEMB 101  PSM  O12  OSLP          -0.57       15.9994       0
   25391 MEMB 101  PSM  C1S  CTL2          -0.08        12.011       0
   25392 MEMB 101  PSM  H1S  HAL2           0.09         1.008       0
   25393 MEMB 101  PSM  H1T  HAL2           0.09         1.008       0
   25394 MEMB 101  PSM  NF   NHL            -0.7        14.007       0
   25395 MEMB 101  PSM  HNF  H              0.35         1.008       0
   25396 MEMB 101  PSM  C2S  CTL1            0.3        12.011       0
   25397 MEMB 101  PSM  H2S  HAL1           0.05         1.008       0
   25398 MEMB 101  PSM  C3S  CTO1            0.5        12.011       0
   25399 MEMB 101  PSM  H3S  HAL1          -0.11         1.008       0
   25400 MEMB 101  PSM  O3   OHL           -0.69       15.9994       0
   25401 MEMB 101  PSM  HO3  HOL             0.3         1.008       0
   25402 MEMB 101  PSM  C4S  CEL3          -0.15        12.011       0
   25403 MEMB 101  PSM  H4S  HEL1           0.15         1.008       0
   25404 MEMB 101  PSM  C5S  CEL3          -0.15        12.011       0
   25405 MEMB 101  PSM  H5S  HEL1           0.15         1.008       0
   25406 MEMB 101  PSM  C6S  CTL2          -0.18        12.011       0
   25407 MEMB 101  PSM  H6S  HAL2           0.09         1.008       0
   25408 MEMB 101  PSM  H6T  HAL2           0.09         1.008       0
   25409 MEMB 101  PSM  C7S  CTL2          -0.18        12.011       0
   25410 MEMB 101  PSM  H7S  HAL2           0.09         1.008       0
   25411 MEMB 101  PSM  H7T  HAL2           0.09         1.008       0
   25412 MEMB 101  PSM  C8S  CTL2          -0.18        12.011       0
   25413 MEMB 101  PSM  H8S  HAL2           0.09         1.008       0
   25414 MEMB 101  PSM  H8T  HAL2           0.09         1.008       0
   25415 MEMB 101  PSM  C9S  CTL2          -0.18        12.011       0
   25416 MEMB 101  PSM  H9S  HAL2           0.09         1.008       0
   25417 MEMB 101  PSM  H9T  HAL2           0.09         1.008       0
   25418 MEMB 101  PSM  C10S CTL2          -0.18        12.011       0
   25419 MEMB 101  PSM  H10S HAL2           0.09         1.008       0
   25420 MEMB 101  PSM  H10T HAL2           0.09         1.008       0
   25421 MEMB 101  PSM  C11S CTL2          -0.18        12.011       0
   25422 MEMB 101  PSM  H11S HAL2           0.09         1.008       0
   25423 MEMB 101  PSM  H11T HAL2           0.09         1.008       0
   25424 MEMB 101  PSM  C12S CTL2          -0.18        12.011       0
   25425 MEMB 101  PSM  H12S HAL2           0.09         1.008       0
   25426 MEMB 101  PSM  H12T HAL2           0.09         1.008       0
   25427 MEMB 101  PSM  C13S CTL2          -0.18        12.011       0
   25428 MEMB 101  PSM  H13S HAL2           0.09         1.008       0
   25429 MEMB 101  PSM  H13T HAL2           0.09         1.008       0
   25430 MEMB 101  PSM  C14S CTL2          -0.18        12.011       0
   25431 MEMB 101  PSM  H14S HAL2           0.09         1.008       0
   25432 MEMB 101  PSM  H14T HAL2           0.09         1.008       0
   25433 MEMB 101  PSM  C15S CTL2          -0.18        12.011       0
   25434 MEMB 101  PSM  H15S HAL2           0.09         1.008       0
   25435 MEMB 101  PSM  H15T HAL2           0.09         1.008       0
   25436 MEMB 101  PSM  C16S CTL2          -0.18        12.011       0
   25437 MEMB 101  PSM  H16S HAL2           0.09         1.008       0
   25438 MEMB 101  PSM  H16T HAL2           0.09         1.008       0
   25439 MEMB 101  PSM  C17S CTL2          -0.18        12.011       0
   25440 MEMB 101  PSM  H17S HAL2           0.09         1.008       0
   25441 MEMB 101  PSM  H17T HAL2           0.09         1.008       0
   25442 MEMB 101  PSM  C18S CTL3          -0.27        12.011       0
   25443 MEMB 101  PSM  H18S HAL3           0.09         1.008       0
   25444 MEMB 101  PSM  H18T HAL3           0.09         1.008       0
   25445 MEMB 101  PSM  H18U HAL3           0.09         1.008       0
   25446 MEMB 101  PSM  C1F  C              0.55        12.011       0
   25447 MEMB 101  PSM  OF   O              -0.6        15.999       0
   25448 MEMB 101  PSM  C2F  CTL2          -0.07        12.011       0
   25449 MEMB 101  PSM  H2F  HAL2           0.06         1.008       0
   25450 MEMB 101  PSM  H2G  HAL2           0.06         1.008       0
   25451 MEMB 101  PSM  C3F  CTL2          -0.18        12.011       0
   25452 MEMB 101  PSM  H3F  HAL2           0.09         1.008       0
   25453 MEMB 101  PSM  H3G  HAL2           0.09         1.008       0
   25454 MEMB 101  PSM  C4F  CTL2          -0.18        12.011       0
   25455 MEMB 101  PSM  H4F  HAL2           0.09         1.008       0
   25456 MEMB 101  PSM  H4G  HAL2           0.09         1.008       0
   25457 MEMB 101  PSM  C5F  CTL2          -0.18        12.011       0
   25458 MEMB 101  PSM  H5F  HAL2           0.09         1.008       0
   25459 MEMB 101  PSM  H5G  HAL2           0.09         1.008       0
   25460 MEMB 101  PSM  C6F  CTL2          -0.18        12.011       0
   25461 MEMB 101  PSM  H6F  HAL2           0.09         1.008       0
   25462 MEMB 101  PSM  H6G  HAL2           0.09         1.008       0
   25463 MEMB 101  PSM  C7F  CTL2          -0.18        12.011       0
   25464 MEMB 101  PSM  H7F  HAL2           0.09         1.008       0
   25465 MEMB 101  PSM  H7G  HAL2           0.09         1.008       0
   25466 MEMB 101  PSM  C8F  CTL2          -0.18        12.011       0
   25467 MEMB 101  PSM  H8F  HAL2           0.09         1.008       0
   25468 MEMB 101  PSM  H8G  HAL2           0.09         1.008       0
   25469 MEMB 101  PSM  C9F  CTL2          -0.18        12.011       0
   25470 MEMB 101  PSM  H9F  HAL2           0.09         1.008       0
   25471 MEMB 101  PSM  H9G  HAL2           0.09         1.008       0
   25472 MEMB 101  PSM  C10F CTL2          -0.18        12.011       0
   25473 MEMB 101  PSM  H10F HAL2           0.09         1.008       0
   25474 MEMB 101  PSM  H10G HAL2           0.09         1.008       0
   25475 MEMB 101  PSM  C11F CTL2          -0.18        12.011       0
   25476 MEMB 101  PSM  H11F HAL2           0.09         1.008       0
   25477 MEMB 101  PSM  H11G HAL2           0.09         1.008       0
   25478 MEMB 101  PSM  C12F CTL2          -0.18        12.011       0
   25479 MEMB 101  PSM  H12F HAL2           0.09         1.008       0
   25480 MEMB 101  PSM  H12G HAL2           0.09         1.008       0
   25481 MEMB 101  PSM  C13F CTL2          -0.18        12.011       0
   25482 MEMB 101  PSM  H13F HAL2           0.09         1.008       0
   25483 MEMB 101  PSM  H13G HAL2           0.09         1.008       0
   25484 MEMB 101  PSM  C14F CTL2          -0.18        12.011       0
   25485 MEMB 101  PSM  H14F HAL2           0.09         1.008       0
   25486 MEMB 101  PSM  H14G HAL2           0.09         1.008       0
   25487 MEMB 101  PSM  C15F CTL2          -0.18        12.011       0
   25488 MEMB 101  PSM  H15F HAL2           0.09         1.008       0
   25489 MEMB 101  PSM  H15G HAL2           0.09         1.008       0
   25490 MEMB 101  PSM  C16F CTL3          -0.27        12.011       0
   25491 MEMB 101  PSM  H16F HAL3           0.09         1.008       0
   25492 MEMB 101  PSM  H16G HAL3           0.09         1.008       0
   25493 MEMB 101  PSM  H16H HAL3           0.09         1.008       0
   25494 MEMB 102  POPC N    NTL            -0.6        14.007       0
   25495 MEMB 102  POPC C12  CTL2           -0.1        12.011       0
   25496 MEMB 102  POPC H12A HL             0.25         1.008       0
   25497 MEMB 102  POPC H12B HL             0.25         1.008       0
   25498 MEMB 102  POPC C13  CTL5          -0.35        12.011       0
   25499 MEMB 102  POPC H13A HL             0.25         1.008       0
   25500 MEMB 102  POPC H13B HL             0.25         1.008       0
   25501 MEMB 102  POPC H13C HL             0.25         1.008       0
   25502 MEMB 102  POPC C14  CTL5          -0.35        12.011       0
   25503 MEMB 102  POPC H14A HL             0.25         1.008       0
   25504 MEMB 102  POPC H14B HL             0.25         1.008       0
   25505 MEMB 102  POPC H14C HL             0.25         1.008       0
   25506 MEMB 102  POPC C15  CTL5          -0.35        12.011       0
   25507 MEMB 102  POPC H15A HL             0.25         1.008       0
   25508 MEMB 102  POPC H15B HL             0.25         1.008       0
   25509 MEMB 102  POPC H15C HL             0.25         1.008       0
   25510 MEMB 102  POPC C11  CTL2          -0.08        12.011       0
   25511 MEMB 102  POPC H11A HAL2           0.09         1.008       0
   25512 MEMB 102  POPC H11B HAL2           0.09         1.008       0
   25513 MEMB 102  POPC P    PL              1.5        30.974       0
   25514 MEMB 102  POPC O13  O2L           -0.78       15.9994       0
   25515 MEMB 102  POPC O14  O2L           -0.78       15.9994       0
   25516 MEMB 102  POPC O12  OSLP          -0.57       15.9994       0
   25517 MEMB 102  POPC O11  OSLP          -0.57       15.9994       0
   25518 MEMB 102  POPC C1   CTL2          -0.08        12.011       0
   25519 MEMB 102  POPC HA   HAL2           0.09         1.008       0
   25520 MEMB 102  POPC HB   HAL2           0.09         1.008       0
   25521 MEMB 102  POPC C2   CTL1           0.17        12.011       0
   25522 MEMB 102  POPC HS   HAL1           0.09         1.008       0
   25523 MEMB 102  POPC O21  OSL           -0.49       15.9994       0
   25524 MEMB 102  POPC C21  CL              0.9        12.011       0
   25525 MEMB 102  POPC O22  OBL           -0.63       15.9994       0
   25526 MEMB 102  POPC C22  CTL2          -0.22        12.011       0
   25527 MEMB 102  POPC H2R  HAL2           0.09         1.008       0
   25528 MEMB 102  POPC H2S  HAL2           0.09         1.008       0
   25529 MEMB 102  POPC C3   CTL2           0.08        12.011       0
   25530 MEMB 102  POPC HX   HAL2           0.09         1.008       0
   25531 MEMB 102  POPC HY   HAL2           0.09         1.008       0
   25532 MEMB 102  POPC O31  OSL           -0.49       15.9994       0
   25533 MEMB 102  POPC C31  CL              0.9        12.011       0
   25534 MEMB 102  POPC O32  OBL           -0.63       15.9994       0
   25535 MEMB 102  POPC C32  CTL2          -0.22        12.011       0
   25536 MEMB 102  POPC H2X  HAL2           0.09         1.008       0
   25537 MEMB 102  POPC H2Y  HAL2           0.09         1.008       0
   25538 MEMB 102  POPC C23  CTL2          -0.18        12.011       0
   25539 MEMB 102  POPC H3R  HAL2           0.09         1.008       0
   25540 MEMB 102  POPC H3S  HAL2           0.09         1.008       0
   25541 MEMB 102  POPC C24  CTL2          -0.18        12.011       0
   25542 MEMB 102  POPC H4R  HAL2           0.09         1.008       0
   25543 MEMB 102  POPC H4S  HAL2           0.09         1.008       0
   25544 MEMB 102  POPC C25  CTL2          -0.18        12.011       0
   25545 MEMB 102  POPC H5R  HAL2           0.09         1.008       0
   25546 MEMB 102  POPC H5S  HAL2           0.09         1.008       0
   25547 MEMB 102  POPC C26  CTL2          -0.18        12.011       0
   25548 MEMB 102  POPC H6R  HAL2           0.09         1.008       0
   25549 MEMB 102  POPC H6S  HAL2           0.09         1.008       0
   25550 MEMB 102  POPC C27  CTL2          -0.18        12.011       0
   25551 MEMB 102  POPC H7R  HAL2           0.09         1.008       0
   25552 MEMB 102  POPC H7S  HAL2           0.09         1.008       0
   25553 MEMB 102  POPC C28  CTL2          -0.18        12.011       0
   25554 MEMB 102  POPC H8R  HAL2           0.09         1.008       0
   25555 MEMB 102  POPC H8S  HAL2           0.09         1.008       0
   25556 MEMB 102  POPC C29  CEL1          -0.15        12.011       0
   25557 MEMB 102  POPC H91  HEL1           0.15         1.008       0
   25558 MEMB 102  POPC C210 CEL1          -0.15        12.011       0
   25559 MEMB 102  POPC H101 HEL1           0.15         1.008       0
   25560 MEMB 102  POPC C211 CTL2          -0.18        12.011       0
   25561 MEMB 102  POPC H11R HAL2           0.09         1.008       0
   25562 MEMB 102  POPC H11S HAL2           0.09         1.008       0
   25563 MEMB 102  POPC C212 CTL2          -0.18        12.011       0
   25564 MEMB 102  POPC H12R HAL2           0.09         1.008       0
   25565 MEMB 102  POPC H12S HAL2           0.09         1.008       0
   25566 MEMB 102  POPC C213 CTL2          -0.18        12.011       0
   25567 MEMB 102  POPC H13R HAL2           0.09         1.008       0
   25568 MEMB 102  POPC H13S HAL2           0.09         1.008       0
   25569 MEMB 102  POPC C214 CTL2          -0.18        12.011       0
   25570 MEMB 102  POPC H14R HAL2           0.09         1.008       0
   25571 MEMB 102  POPC H14S HAL2           0.09         1.008       0
   25572 MEMB 102  POPC C215 CTL2          -0.18        12.011       0
   25573 MEMB 102  POPC H15R HAL2           0.09         1.008       0
   25574 MEMB 102  POPC H15S HAL2           0.09         1.008       0
   25575 MEMB 102  POPC C216 CTL2          -0.18        12.011       0
   25576 MEMB 102  POPC H16R HAL2           0.09         1.008       0
   25577 MEMB 102  POPC H16S HAL2           0.09         1.008       0
   25578 MEMB 102  POPC C217 CTL2          -0.18        12.011       0
   25579 MEMB 102  POPC H17R HAL2           0.09         1.008       0
   25580 MEMB 102  POPC H17S HAL2           0.09         1.008       0
   25581 MEMB 102  POPC C218 CTL3          -0.27        12.011       0
   25582 MEMB 102  POPC H18R HAL3           0.09         1.008       0
   25583 MEMB 102  POPC H18S HAL3           0.09         1.008       0
   25584 MEMB 102  POPC H18T HAL3           0.09         1.008       0
   25585 MEMB 102  POPC C33  CTL2          -0.18        12.011       0
   25586 MEMB 102  POPC H3X  HAL2           0.09         1.008       0
   25587 MEMB 102  POPC H3Y  HAL2           0.09         1.008       0
   25588 MEMB 102  POPC C34  CTL2          -0.18        12.011       0
   25589 MEMB 102  POPC H4X  HAL2           0.09         1.008       0
   25590 MEMB 102  POPC H4Y  HAL2           0.09         1.008       0
   25591 MEMB 102  POPC C35  CTL2          -0.18        12.011       0
   25592 MEMB 102  POPC H5X  HAL2           0.09         1.008       0
   25593 MEMB 102  POPC H5Y  HAL2           0.09         1.008       0
   25594 MEMB 102  POPC C36  CTL2          -0.18        12.011       0
   25595 MEMB 102  POPC H6X  HAL2           0.09         1.008       0
   25596 MEMB 102  POPC H6Y  HAL2           0.09         1.008       0
   25597 MEMB 102  POPC C37  CTL2          -0.18        12.011       0
   25598 MEMB 102  POPC H7X  HAL2           0.09         1.008       0
   25599 MEMB 102  POPC H7Y  HAL2           0.09         1.008       0
   25600 MEMB 102  POPC C38  CTL2          -0.18        12.011       0
   25601 MEMB 102  POPC H8X  HAL2           0.09         1.008       0
   25602 MEMB 102  POPC H8Y  HAL2           0.09         1.008       0
   25603 MEMB 102  POPC C39  CTL2          -0.18        12.011       0
   25604 MEMB 102  POPC H9X  HAL2           0.09         1.008       0
   25605 MEMB 102  POPC H9Y  HAL2           0.09         1.008       0
   25606 MEMB 102  POPC C310 CTL2          -0.18        12.011       0
   25607 MEMB 102  POPC H10X HAL2           0.09         1.008       0
   25608 MEMB 102  POPC H10Y HAL2           0.09         1.008       0
   25609 MEMB 102  POPC C311 CTL2          -0.18        12.011       0
   25610 MEMB 102  POPC H11X HAL2           0.09         1.008       0
   25611 MEMB 102  POPC H11Y HAL2           0.09         1.008       0
   25612 MEMB 102  POPC C312 CTL2          -0.18        12.011       0
   25613 MEMB 102  POPC H12X HAL2           0.09         1.008       0
   25614 MEMB 102  POPC H12Y HAL2           0.09         1.008       0
   25615 MEMB 102  POPC C313 CTL2          -0.18        12.011       0
   25616 MEMB 102  POPC H13X HAL2           0.09         1.008       0
   25617 MEMB 102  POPC H13Y HAL2           0.09         1.008       0
   25618 MEMB 102  POPC C314 CTL2          -0.18        12.011       0
   25619 MEMB 102  POPC H14X HAL2           0.09         1.008       0
   25620 MEMB 102  POPC H14Y HAL2           0.09         1.008       0
   25621 MEMB 102  POPC C315 CTL2          -0.18        12.011       0
   25622 MEMB 102  POPC H15X HAL2           0.09         1.008       0
   25623 MEMB 102  POPC H15Y HAL2           0.09         1.008       0
   25624 MEMB 102  POPC C316 CTL3          -0.27        12.011       0
   25625 MEMB 102  POPC H16X HAL3           0.09         1.008       0
   25626 MEMB 102  POPC H16Y HAL3           0.09         1.008       0
   25627 MEMB 102  POPC H16Z HAL3           0.09         1.008       0
   25628 MEMB 103  POPE N    NH3L           -0.3        14.007       0
   25629 MEMB 103  POPE HN1  HCL            0.33         1.008       0
   25630 MEMB 103  POPE HN2  HCL            0.33         1.008       0
   25631 MEMB 103  POPE HN3  HCL            0.33         1.008       0
   25632 MEMB 103  POPE C12  CTL2           0.13        12.011       0
   25633 MEMB 103  POPE H12A HAL2           0.09         1.008       0
   25634 MEMB 103  POPE H12B HAL2           0.09         1.008       0
   25635 MEMB 103  POPE C11  CTL2          -0.08        12.011       0
   25636 MEMB 103  POPE H11A HAL2           0.09         1.008       0
   25637 MEMB 103  POPE H11B HAL2           0.09         1.008       0
   25638 MEMB 103  POPE P    PL              1.5        30.974       0
   25639 MEMB 103  POPE O13  O2L           -0.78       15.9994       0
   25640 MEMB 103  POPE O14  O2L           -0.78       15.9994       0
   25641 MEMB 103  POPE O11  OSLP          -0.57       15.9994       0
   25642 MEMB 103  POPE O12  OSLP          -0.57       15.9994       0
   25643 MEMB 103  POPE C1   CTL2          -0.08        12.011       0
   25644 MEMB 103  POPE HA   HAL2           0.09         1.008       0
   25645 MEMB 103  POPE HB   HAL2           0.09         1.008       0
   25646 MEMB 103  POPE C2   CTL1           0.17        12.011       0
   25647 MEMB 103  POPE HS   HAL1           0.09         1.008       0
   25648 MEMB 103  POPE O21  OSL           -0.49       15.9994       0
   25649 MEMB 103  POPE C21  CL              0.9        12.011       0
   25650 MEMB 103  POPE O22  OBL           -0.63       15.9994       0
   25651 MEMB 103  POPE C22  CTL2          -0.22        12.011       0
   25652 MEMB 103  POPE H2R  HAL2           0.09         1.008       0
   25653 MEMB 103  POPE H2S  HAL2           0.09         1.008       0
   25654 MEMB 103  POPE C3   CTL2           0.08        12.011       0
   25655 MEMB 103  POPE HX   HAL2           0.09         1.008       0
   25656 MEMB 103  POPE HY   HAL2           0.09         1.008       0
   25657 MEMB 103  POPE O31  OSL           -0.49       15.9994       0
   25658 MEMB 103  POPE C31  CL              0.9        12.011       0
   25659 MEMB 103  POPE O32  OBL           -0.63       15.9994       0
   25660 MEMB 103  POPE C32  CTL2          -0.22        12.011       0
   25661 MEMB 103  POPE H2X  HAL2           0.09         1.008       0
   25662 MEMB 103  POPE H2Y  HAL2           0.09         1.008       0
   25663 MEMB 103  POPE C23  CTL2          -0.18        12.011       0
   25664 MEMB 103  POPE H3R  HAL2           0.09         1.008       0
   25665 MEMB 103  POPE H3S  HAL2           0.09         1.008       0
   25666 MEMB 103  POPE C24  CTL2          -0.18        12.011       0
   25667 MEMB 103  POPE H4R  HAL2           0.09         1.008       0
   25668 MEMB 103  POPE H4S  HAL2           0.09         1.008       0
   25669 MEMB 103  POPE C25  CTL2          -0.18        12.011       0
   25670 MEMB 103  POPE H5R  HAL2           0.09         1.008       0
   25671 MEMB 103  POPE H5S  HAL2           0.09         1.008       0
   25672 MEMB 103  POPE C26  CTL2          -0.18        12.011       0
   25673 MEMB 103  POPE H6R  HAL2           0.09         1.008       0
   25674 MEMB 103  POPE H6S  HAL2           0.09         1.008       0
   25675 MEMB 103  POPE C27  CTL2          -0.18        12.011       0
   25676 MEMB 103  POPE H7R  HAL2           0.09         1.008       0
   25677 MEMB 103  POPE H7S  HAL2           0.09         1.008       0
   25678 MEMB 103  POPE C28  CTL2          -0.18        12.011       0
   25679 MEMB 103  POPE H8R  HAL2           0.09         1.008       0
   25680 MEMB 103  POPE H8S  HAL2           0.09         1.008       0
   25681 MEMB 103  POPE C29  CEL1          -0.15        12.011       0
   25682 MEMB 103  POPE H91  HEL1           0.15         1.008       0
   25683 MEMB 103  POPE C210 CEL1          -0.15        12.011       0
   25684 MEMB 103  POPE H101 HEL1           0.15         1.008       0
   25685 MEMB 103  POPE C211 CTL2          -0.18        12.011       0
   25686 MEMB 103  POPE H11R HAL2           0.09         1.008       0
   25687 MEMB 103  POPE H11S HAL2           0.09         1.008       0
   25688 MEMB 103  POPE C212 CTL2          -0.18        12.011       0
   25689 MEMB 103  POPE H12R HAL2           0.09         1.008       0
   25690 MEMB 103  POPE H12S HAL2           0.09         1.008       0
   25691 MEMB 103  POPE C213 CTL2          -0.18        12.011       0
   25692 MEMB 103  POPE H13R HAL2           0.09         1.008       0
   25693 MEMB 103  POPE H13S HAL2           0.09         1.008       0
   25694 MEMB 103  POPE C214 CTL2          -0.18        12.011       0
   25695 MEMB 103  POPE H14R HAL2           0.09         1.008       0
   25696 MEMB 103  POPE H14S HAL2           0.09         1.008       0
   25697 MEMB 103  POPE C215 CTL2          -0.18        12.011       0
   25698 MEMB 103  POPE H15R HAL2           0.09         1.008       0
   25699 MEMB 103  POPE H15S HAL2           0.09         1.008       0
   25700 MEMB 103  POPE C216 CTL2          -0.18        12.011       0
   25701 MEMB 103  POPE H16R HAL2           0.09         1.008       0
   25702 MEMB 103  POPE H16S HAL2           0.09         1.008       0
   25703 MEMB 103  POPE C217 CTL2          -0.18        12.011       0
   25704 MEMB 103  POPE H17R HAL2           0.09         1.008       0
   25705 MEMB 103  POPE H17S HAL2           0.09         1.008       0
   25706 MEMB 103  POPE C218 CTL3          -0.27        12.011       0
   25707 MEMB 103  POPE H18R HAL3           0.09         1.008       0
   25708 MEMB 103  POPE H18S HAL3           0.09         1.008       0
   25709 MEMB 103  POPE H18T HAL3           0.09         1.008       0
   25710 MEMB 103  POPE C33  CTL2          -0.18        12.011       0
   25711 MEMB 103  POPE H3X  HAL2           0.09         1.008       0
   25712 MEMB 103  POPE H3Y  HAL2           0.09         1.008       0
   25713 MEMB 103  POPE C34  CTL2          -0.18        12.011       0
   25714 MEMB 103  POPE H4X  HAL2           0.09         1.008       0
   25715 MEMB 103  POPE H4Y  HAL2           0.09         1.008       0
   25716 MEMB 103  POPE C35  CTL2          -0.18        12.011       0
   25717 MEMB 103  POPE H5X  HAL2           0.09         1.008       0
   25718 MEMB 103  POPE H5Y  HAL2           0.09         1.008       0
   25719 MEMB 103  POPE C36  CTL2          -0.18        12.011       0
   25720 MEMB 103  POPE H6X  HAL2           0.09         1.008       0
   25721 MEMB 103  POPE H6Y  HAL2           0.09         1.008       0
   25722 MEMB 103  POPE C37  CTL2          -0.18        12.011       0
   25723 MEMB 103  POPE H7X  HAL2           0.09         1.008       0
   25724 MEMB 103  POPE H7Y  HAL2           0.09         1.008       0
   25725 MEMB 103  POPE C38  CTL2          -0.18        12.011       0
   25726 MEMB 103  POPE H8X  HAL2           0.09         1.008       0
   25727 MEMB 103  POPE H8Y  HAL2           0.09         1.008       0
   25728 MEMB 103  POPE C39  CTL2          -0.18        12.011       0
   25729 MEMB 103  POPE H9X  HAL2           0.09         1.008       0
   25730 MEMB 103  POPE H9Y  HAL2           0.09         1.008       0
   25731 MEMB 103  POPE C310 CTL2          -0.18        12.011       0
   25732 MEMB 103  POPE H10X HAL2           0.09         1.008       0
   25733 MEMB 103  POPE H10Y HAL2           0.09         1.008       0
   25734 MEMB 103  POPE C311 CTL2          -0.18        12.011       0
   25735 MEMB 103  POPE H11X HAL2           0.09         1.008       0
   25736 MEMB 103  POPE H11Y HAL2           0.09         1.008       0
   25737 MEMB 103  POPE C312 CTL2          -0.18        12.011       0
   25738 MEMB 103  POPE H12X HAL2           0.09         1.008       0
   25739 MEMB 103  POPE H12Y HAL2           0.09         1.008       0
   25740 MEMB 103  POPE C313 CTL2          -0.18        12.011       0
   25741 MEMB 103  POPE H13X HAL2           0.09         1.008       0
   25742 MEMB 103  POPE H13Y HAL2           0.09         1.008       0
   25743 MEMB 103  POPE C314 CTL2          -0.18        12.011       0
   25744 MEMB 103  POPE H14X HAL2           0.09         1.008       0
   25745 MEMB 103  POPE H14Y HAL2           0.09         1.008       0
   25746 MEMB 103  POPE C315 CTL2          -0.18        12.011       0
   25747 MEMB 103  POPE H15X HAL2           0.09         1.008       0
   25748 MEMB 103  POPE H15Y HAL2           0.09         1.008       0
   25749 MEMB 103  POPE C316 CTL3          -0.27        12.011       0
   25750 MEMB 103  POPE H16X HAL3           0.09         1.008       0
   25751 MEMB 103  POPE H16Y HAL3           0.09         1.008       0
   25752 MEMB 103  POPE H16Z HAL3           0.09         1.008       0
   25753 MEMB 104  POPC N    NTL            -0.6        14.007       0
   25754 MEMB 104  POPC C12  CTL2           -0.1        12.011       0
   25755 MEMB 104  POPC H12A HL             0.25         1.008       0
   25756 MEMB 104  POPC H12B HL             0.25         1.008       0
   25757 MEMB 104  POPC C13  CTL5          -0.35        12.011       0
   25758 MEMB 104  POPC H13A HL             0.25         1.008       0
   25759 MEMB 104  POPC H13B HL             0.25         1.008       0
   25760 MEMB 104  POPC H13C HL             0.25         1.008       0
   25761 MEMB 104  POPC C14  CTL5          -0.35        12.011       0
   25762 MEMB 104  POPC H14A HL             0.25         1.008       0
   25763 MEMB 104  POPC H14B HL             0.25         1.008       0
   25764 MEMB 104  POPC H14C HL             0.25         1.008       0
   25765 MEMB 104  POPC C15  CTL5          -0.35        12.011       0
   25766 MEMB 104  POPC H15A HL             0.25         1.008       0
   25767 MEMB 104  POPC H15B HL             0.25         1.008       0
   25768 MEMB 104  POPC H15C HL             0.25         1.008       0
   25769 MEMB 104  POPC C11  CTL2          -0.08        12.011       0
   25770 MEMB 104  POPC H11A HAL2           0.09         1.008       0
   25771 MEMB 104  POPC H11B HAL2           0.09         1.008       0
   25772 MEMB 104  POPC P    PL              1.5        30.974       0
   25773 MEMB 104  POPC O13  O2L           -0.78       15.9994       0
   25774 MEMB 104  POPC O14  O2L           -0.78       15.9994       0
   25775 MEMB 104  POPC O12  OSLP          -0.57       15.9994       0
   25776 MEMB 104  POPC O11  OSLP          -0.57       15.9994       0
   25777 MEMB 104  POPC C1   CTL2          -0.08        12.011       0
   25778 MEMB 104  POPC HA   HAL2           0.09         1.008       0
   25779 MEMB 104  POPC HB   HAL2           0.09         1.008       0
   25780 MEMB 104  POPC C2   CTL1           0.17        12.011       0
   25781 MEMB 104  POPC HS   HAL1           0.09         1.008       0
   25782 MEMB 104  POPC O21  OSL           -0.49       15.9994       0
   25783 MEMB 104  POPC C21  CL              0.9        12.011       0
   25784 MEMB 104  POPC O22  OBL           -0.63       15.9994       0
   25785 MEMB 104  POPC C22  CTL2          -0.22        12.011       0
   25786 MEMB 104  POPC H2R  HAL2           0.09         1.008       0
   25787 MEMB 104  POPC H2S  HAL2           0.09         1.008       0
   25788 MEMB 104  POPC C3   CTL2           0.08        12.011       0
   25789 MEMB 104  POPC HX   HAL2           0.09         1.008       0
   25790 MEMB 104  POPC HY   HAL2           0.09         1.008       0
   25791 MEMB 104  POPC O31  OSL           -0.49       15.9994       0
   25792 MEMB 104  POPC C31  CL              0.9        12.011       0
   25793 MEMB 104  POPC O32  OBL           -0.63       15.9994       0
   25794 MEMB 104  POPC C32  CTL2          -0.22        12.011       0
   25795 MEMB 104  POPC H2X  HAL2           0.09         1.008       0
   25796 MEMB 104  POPC H2Y  HAL2           0.09         1.008       0
   25797 MEMB 104  POPC C23  CTL2          -0.18        12.011       0
   25798 MEMB 104  POPC H3R  HAL2           0.09         1.008       0
   25799 MEMB 104  POPC H3S  HAL2           0.09         1.008       0
   25800 MEMB 104  POPC C24  CTL2          -0.18        12.011       0
   25801 MEMB 104  POPC H4R  HAL2           0.09         1.008       0
   25802 MEMB 104  POPC H4S  HAL2           0.09         1.008       0
   25803 MEMB 104  POPC C25  CTL2          -0.18        12.011       0
   25804 MEMB 104  POPC H5R  HAL2           0.09         1.008       0
   25805 MEMB 104  POPC H5S  HAL2           0.09         1.008       0
   25806 MEMB 104  POPC C26  CTL2          -0.18        12.011       0
   25807 MEMB 104  POPC H6R  HAL2           0.09         1.008       0
   25808 MEMB 104  POPC H6S  HAL2           0.09         1.008       0
   25809 MEMB 104  POPC C27  CTL2          -0.18        12.011       0
   25810 MEMB 104  POPC H7R  HAL2           0.09         1.008       0
   25811 MEMB 104  POPC H7S  HAL2           0.09         1.008       0
   25812 MEMB 104  POPC C28  CTL2          -0.18        12.011       0
   25813 MEMB 104  POPC H8R  HAL2           0.09         1.008       0
   25814 MEMB 104  POPC H8S  HAL2           0.09         1.008       0
   25815 MEMB 104  POPC C29  CEL1          -0.15        12.011       0
   25816 MEMB 104  POPC H91  HEL1           0.15         1.008       0
   25817 MEMB 104  POPC C210 CEL1          -0.15        12.011       0
   25818 MEMB 104  POPC H101 HEL1           0.15         1.008       0
   25819 MEMB 104  POPC C211 CTL2          -0.18        12.011       0
   25820 MEMB 104  POPC H11R HAL2           0.09         1.008       0
   25821 MEMB 104  POPC H11S HAL2           0.09         1.008       0
   25822 MEMB 104  POPC C212 CTL2          -0.18        12.011       0
   25823 MEMB 104  POPC H12R HAL2           0.09         1.008       0
   25824 MEMB 104  POPC H12S HAL2           0.09         1.008       0
   25825 MEMB 104  POPC C213 CTL2          -0.18        12.011       0
   25826 MEMB 104  POPC H13R HAL2           0.09         1.008       0
   25827 MEMB 104  POPC H13S HAL2           0.09         1.008       0
   25828 MEMB 104  POPC C214 CTL2          -0.18        12.011       0
   25829 MEMB 104  POPC H14R HAL2           0.09         1.008       0
   25830 MEMB 104  POPC H14S HAL2           0.09         1.008       0
   25831 MEMB 104  POPC C215 CTL2          -0.18        12.011       0
   25832 MEMB 104  POPC H15R HAL2           0.09         1.008       0
   25833 MEMB 104  POPC H15S HAL2           0.09         1.008       0
   25834 MEMB 104  POPC C216 CTL2          -0.18        12.011       0
   25835 MEMB 104  POPC H16R HAL2           0.09         1.008       0
   25836 MEMB 104  POPC H16S HAL2           0.09         1.008       0
   25837 MEMB 104  POPC C217 CTL2          -0.18        12.011       0
   25838 MEMB 104  POPC H17R HAL2           0.09         1.008       0
   25839 MEMB 104  POPC H17S HAL2           0.09         1.008       0
   25840 MEMB 104  POPC C218 CTL3          -0.27        12.011       0
   25841 MEMB 104  POPC H18R HAL3           0.09         1.008       0
   25842 MEMB 104  POPC H18S HAL3           0.09         1.008       0
   25843 MEMB 104  POPC H18T HAL3           0.09         1.008       0
   25844 MEMB 104  POPC C33  CTL2          -0.18        12.011       0
   25845 MEMB 104  POPC H3X  HAL2           0.09         1.008       0
   25846 MEMB 104  POPC H3Y  HAL2           0.09         1.008       0
   25847 MEMB 104  POPC C34  CTL2          -0.18        12.011       0
   25848 MEMB 104  POPC H4X  HAL2           0.09         1.008       0
   25849 MEMB 104  POPC H4Y  HAL2           0.09         1.008       0
   25850 MEMB 104  POPC C35  CTL2          -0.18        12.011       0
   25851 MEMB 104  POPC H5X  HAL2           0.09         1.008       0
   25852 MEMB 104  POPC H5Y  HAL2           0.09         1.008       0
   25853 MEMB 104  POPC C36  CTL2          -0.18        12.011       0
   25854 MEMB 104  POPC H6X  HAL2           0.09         1.008       0
   25855 MEMB 104  POPC H6Y  HAL2           0.09         1.008       0
   25856 MEMB 104  POPC C37  CTL2          -0.18        12.011       0
   25857 MEMB 104  POPC H7X  HAL2           0.09         1.008       0
   25858 MEMB 104  POPC H7Y  HAL2           0.09         1.008       0
   25859 MEMB 104  POPC C38  CTL2          -0.18        12.011       0
   25860 MEMB 104  POPC H8X  HAL2           0.09         1.008       0
   25861 MEMB 104  POPC H8Y  HAL2           0.09         1.008       0
   25862 MEMB 104  POPC C39  CTL2          -0.18        12.011       0
   25863 MEMB 104  POPC H9X  HAL2           0.09         1.008       0
   25864 MEMB 104  POPC H9Y  HAL2           0.09         1.008       0
   25865 MEMB 104  POPC C310 CTL2          -0.18        12.011       0
   25866 MEMB 104  POPC H10X HAL2           0.09         1.008       0
   25867 MEMB 104  POPC H10Y HAL2           0.09         1.008       0
   25868 MEMB 104  POPC C311 CTL2          -0.18        12.011       0
   25869 MEMB 104  POPC H11X HAL2           0.09         1.008       0
   25870 MEMB 104  POPC H11Y HAL2           0.09         1.008       0
   25871 MEMB 104  POPC C312 CTL2          -0.18        12.011       0
   25872 MEMB 104  POPC H12X HAL2           0.09         1.008       0
   25873 MEMB 104  POPC H12Y HAL2           0.09         1.008       0
   25874 MEMB 104  POPC C313 CTL2          -0.18        12.011       0
   25875 MEMB 104  POPC H13X HAL2           0.09         1.008       0
   25876 MEMB 104  POPC H13Y HAL2           0.09         1.008       0
   25877 MEMB 104  POPC C314 CTL2          -0.18        12.011       0
   25878 MEMB 104  POPC H14X HAL2           0.09         1.008       0
   25879 MEMB 104  POPC H14Y HAL2           0.09         1.008       0
   25880 MEMB 104  POPC C315 CTL2          -0.18        12.011       0
   25881 MEMB 104  POPC H15X HAL2           0.09         1.008       0
   25882 MEMB 104  POPC H15Y HAL2           0.09         1.008       0
   25883 MEMB 104  POPC C316 CTL3          -0.27        12.011       0
   25884 MEMB 104  POPC H16X HAL3           0.09         1.008       0
   25885 MEMB 104  POPC H16Y HAL3           0.09         1.008       0
   25886 MEMB 104  POPC H16Z HAL3           0.09         1.008       0
   25887 MEMB 105  POPE N    NH3L           -0.3        14.007       0
   25888 MEMB 105  POPE HN1  HCL            0.33         1.008       0
   25889 MEMB 105  POPE HN2  HCL            0.33         1.008       0
   25890 MEMB 105  POPE HN3  HCL            0.33         1.008       0
   25891 MEMB 105  POPE C12  CTL2           0.13        12.011       0
   25892 MEMB 105  POPE H12A HAL2           0.09         1.008       0
   25893 MEMB 105  POPE H12B HAL2           0.09         1.008       0
   25894 MEMB 105  POPE C11  CTL2          -0.08        12.011       0
   25895 MEMB 105  POPE H11A HAL2           0.09         1.008       0
   25896 MEMB 105  POPE H11B HAL2           0.09         1.008       0
   25897 MEMB 105  POPE P    PL              1.5        30.974       0
   25898 MEMB 105  POPE O13  O2L           -0.78       15.9994       0
   25899 MEMB 105  POPE O14  O2L           -0.78       15.9994       0
   25900 MEMB 105  POPE O11  OSLP          -0.57       15.9994       0
   25901 MEMB 105  POPE O12  OSLP          -0.57       15.9994       0
   25902 MEMB 105  POPE C1   CTL2          -0.08        12.011       0
   25903 MEMB 105  POPE HA   HAL2           0.09         1.008       0
   25904 MEMB 105  POPE HB   HAL2           0.09         1.008       0
   25905 MEMB 105  POPE C2   CTL1           0.17        12.011       0
   25906 MEMB 105  POPE HS   HAL1           0.09         1.008       0
   25907 MEMB 105  POPE O21  OSL           -0.49       15.9994       0
   25908 MEMB 105  POPE C21  CL              0.9        12.011       0
   25909 MEMB 105  POPE O22  OBL           -0.63       15.9994       0
   25910 MEMB 105  POPE C22  CTL2          -0.22        12.011       0
   25911 MEMB 105  POPE H2R  HAL2           0.09         1.008       0
   25912 MEMB 105  POPE H2S  HAL2           0.09         1.008       0
   25913 MEMB 105  POPE C3   CTL2           0.08        12.011       0
   25914 MEMB 105  POPE HX   HAL2           0.09         1.008       0
   25915 MEMB 105  POPE HY   HAL2           0.09         1.008       0
   25916 MEMB 105  POPE O31  OSL           -0.49       15.9994       0
   25917 MEMB 105  POPE C31  CL              0.9        12.011       0
   25918 MEMB 105  POPE O32  OBL           -0.63       15.9994       0
   25919 MEMB 105  POPE C32  CTL2          -0.22        12.011       0
   25920 MEMB 105  POPE H2X  HAL2           0.09         1.008       0
   25921 MEMB 105  POPE H2Y  HAL2           0.09         1.008       0
   25922 MEMB 105  POPE C23  CTL2          -0.18        12.011       0
   25923 MEMB 105  POPE H3R  HAL2           0.09         1.008       0
   25924 MEMB 105  POPE H3S  HAL2           0.09         1.008       0
   25925 MEMB 105  POPE C24  CTL2          -0.18        12.011       0
   25926 MEMB 105  POPE H4R  HAL2           0.09         1.008       0
   25927 MEMB 105  POPE H4S  HAL2           0.09         1.008       0
   25928 MEMB 105  POPE C25  CTL2          -0.18        12.011       0
   25929 MEMB 105  POPE H5R  HAL2           0.09         1.008       0
   25930 MEMB 105  POPE H5S  HAL2           0.09         1.008       0
   25931 MEMB 105  POPE C26  CTL2          -0.18        12.011       0
   25932 MEMB 105  POPE H6R  HAL2           0.09         1.008       0
   25933 MEMB 105  POPE H6S  HAL2           0.09         1.008       0
   25934 MEMB 105  POPE C27  CTL2          -0.18        12.011       0
   25935 MEMB 105  POPE H7R  HAL2           0.09         1.008       0
   25936 MEMB 105  POPE H7S  HAL2           0.09         1.008       0
   25937 MEMB 105  POPE C28  CTL2          -0.18        12.011       0
   25938 MEMB 105  POPE H8R  HAL2           0.09         1.008       0
   25939 MEMB 105  POPE H8S  HAL2           0.09         1.008       0
   25940 MEMB 105  POPE C29  CEL1          -0.15        12.011       0
   25941 MEMB 105  POPE H91  HEL1           0.15         1.008       0
   25942 MEMB 105  POPE C210 CEL1          -0.15        12.011       0
   25943 MEMB 105  POPE H101 HEL1           0.15         1.008       0
   25944 MEMB 105  POPE C211 CTL2          -0.18        12.011       0
   25945 MEMB 105  POPE H11R HAL2           0.09         1.008       0
   25946 MEMB 105  POPE H11S HAL2           0.09         1.008       0
   25947 MEMB 105  POPE C212 CTL2          -0.18        12.011       0
   25948 MEMB 105  POPE H12R HAL2           0.09         1.008       0
   25949 MEMB 105  POPE H12S HAL2           0.09         1.008       0
   25950 MEMB 105  POPE C213 CTL2          -0.18        12.011       0
   25951 MEMB 105  POPE H13R HAL2           0.09         1.008       0
   25952 MEMB 105  POPE H13S HAL2           0.09         1.008       0
   25953 MEMB 105  POPE C214 CTL2          -0.18        12.011       0
   25954 MEMB 105  POPE H14R HAL2           0.09         1.008       0
   25955 MEMB 105  POPE H14S HAL2           0.09         1.008       0
   25956 MEMB 105  POPE C215 CTL2          -0.18        12.011       0
   25957 MEMB 105  POPE H15R HAL2           0.09         1.008       0
   25958 MEMB 105  POPE H15S HAL2           0.09         1.008       0
   25959 MEMB 105  POPE C216 CTL2          -0.18        12.011       0
   25960 MEMB 105  POPE H16R HAL2           0.09         1.008       0
   25961 MEMB 105  POPE H16S HAL2           0.09         1.008       0
   25962 MEMB 105  POPE C217 CTL2          -0.18        12.011       0
   25963 MEMB 105  POPE H17R HAL2           0.09         1.008       0
   25964 MEMB 105  POPE H17S HAL2           0.09         1.008       0
   25965 MEMB 105  POPE C218 CTL3          -0.27        12.011       0
   25966 MEMB 105  POPE H18R HAL3           0.09         1.008       0
   25967 MEMB 105  POPE H18S HAL3           0.09         1.008       0
   25968 MEMB 105  POPE H18T HAL3           0.09         1.008       0
   25969 MEMB 105  POPE C33  CTL2          -0.18        12.011       0
   25970 MEMB 105  POPE H3X  HAL2           0.09         1.008       0
   25971 MEMB 105  POPE H3Y  HAL2           0.09         1.008       0
   25972 MEMB 105  POPE C34  CTL2          -0.18        12.011       0
   25973 MEMB 105  POPE H4X  HAL2           0.09         1.008       0
   25974 MEMB 105  POPE H4Y  HAL2           0.09         1.008       0
   25975 MEMB 105  POPE C35  CTL2          -0.18        12.011       0
   25976 MEMB 105  POPE H5X  HAL2           0.09         1.008       0
   25977 MEMB 105  POPE H5Y  HAL2           0.09         1.008       0
   25978 MEMB 105  POPE C36  CTL2          -0.18        12.011       0
   25979 MEMB 105  POPE H6X  HAL2           0.09         1.008       0
   25980 MEMB 105  POPE H6Y  HAL2           0.09         1.008       0
   25981 MEMB 105  POPE C37  CTL2          -0.18        12.011       0
   25982 MEMB 105  POPE H7X  HAL2           0.09         1.008       0
   25983 MEMB 105  POPE H7Y  HAL2           0.09         1.008       0
   25984 MEMB 105  POPE C38  CTL2          -0.18        12.011       0
   25985 MEMB 105  POPE H8X  HAL2           0.09         1.008       0
   25986 MEMB 105  POPE H8Y  HAL2           0.09         1.008       0
   25987 MEMB 105  POPE C39  CTL2          -0.18        12.011       0
   25988 MEMB 105  POPE H9X  HAL2           0.09         1.008       0
   25989 MEMB 105  POPE H9Y  HAL2           0.09         1.008       0
   25990 MEMB 105  POPE C310 CTL2          -0.18        12.011       0
   25991 MEMB 105  POPE H10X HAL2           0.09         1.008       0
   25992 MEMB 105  POPE H10Y HAL2           0.09         1.008       0
   25993 MEMB 105  POPE C311 CTL2          -0.18        12.011       0
   25994 MEMB 105  POPE H11X HAL2           0.09         1.008       0
   25995 MEMB 105  POPE H11Y HAL2           0.09         1.008       0
   25996 MEMB 105  POPE C312 CTL2          -0.18        12.011       0
   25997 MEMB 105  POPE H12X HAL2           0.09         1.008       0
   25998 MEMB 105  POPE H12Y HAL2           0.09         1.008       0
   25999 MEMB 105  POPE C313 CTL2          -0.18        12.011       0
   26000 MEMB 105  POPE H13X HAL2           0.09         1.008       0
   26001 MEMB 105  POPE H13Y HAL2           0.09         1.008       0
   26002 MEMB 105  POPE C314 CTL2          -0.18        12.011       0
   26003 MEMB 105  POPE H14X HAL2           0.09         1.008       0
   26004 MEMB 105  POPE H14Y HAL2           0.09         1.008       0
   26005 MEMB 105  POPE C315 CTL2          -0.18        12.011       0
   26006 MEMB 105  POPE H15X HAL2           0.09         1.008       0
   26007 MEMB 105  POPE H15Y HAL2           0.09         1.008       0
   26008 MEMB 105  POPE C316 CTL3          -0.27        12.011       0
   26009 MEMB 105  POPE H16X HAL3           0.09         1.008       0
   26010 MEMB 105  POPE H16Y HAL3           0.09         1.008       0
   26011 MEMB 105  POPE H16Z HAL3           0.09         1.008       0
   26012 MEMB 106  POPE N    NH3L           -0.3        14.007       0
   26013 MEMB 106  POPE HN1  HCL            0.33         1.008       0
   26014 MEMB 106  POPE HN2  HCL            0.33         1.008       0
   26015 MEMB 106  POPE HN3  HCL            0.33         1.008       0
   26016 MEMB 106  POPE C12  CTL2           0.13        12.011       0
   26017 MEMB 106  POPE H12A HAL2           0.09         1.008       0
   26018 MEMB 106  POPE H12B HAL2           0.09         1.008       0
   26019 MEMB 106  POPE C11  CTL2          -0.08        12.011       0
   26020 MEMB 106  POPE H11A HAL2           0.09         1.008       0
   26021 MEMB 106  POPE H11B HAL2           0.09         1.008       0
   26022 MEMB 106  POPE P    PL              1.5        30.974       0
   26023 MEMB 106  POPE O13  O2L           -0.78       15.9994       0
   26024 MEMB 106  POPE O14  O2L           -0.78       15.9994       0
   26025 MEMB 106  POPE O11  OSLP          -0.57       15.9994       0
   26026 MEMB 106  POPE O12  OSLP          -0.57       15.9994       0
   26027 MEMB 106  POPE C1   CTL2          -0.08        12.011       0
   26028 MEMB 106  POPE HA   HAL2           0.09         1.008       0
   26029 MEMB 106  POPE HB   HAL2           0.09         1.008       0
   26030 MEMB 106  POPE C2   CTL1           0.17        12.011       0
   26031 MEMB 106  POPE HS   HAL1           0.09         1.008       0
   26032 MEMB 106  POPE O21  OSL           -0.49       15.9994       0
   26033 MEMB 106  POPE C21  CL              0.9        12.011       0
   26034 MEMB 106  POPE O22  OBL           -0.63       15.9994       0
   26035 MEMB 106  POPE C22  CTL2          -0.22        12.011       0
   26036 MEMB 106  POPE H2R  HAL2           0.09         1.008       0
   26037 MEMB 106  POPE H2S  HAL2           0.09         1.008       0
   26038 MEMB 106  POPE C3   CTL2           0.08        12.011       0
   26039 MEMB 106  POPE HX   HAL2           0.09         1.008       0
   26040 MEMB 106  POPE HY   HAL2           0.09         1.008       0
   26041 MEMB 106  POPE O31  OSL           -0.49       15.9994       0
   26042 MEMB 106  POPE C31  CL              0.9        12.011       0
   26043 MEMB 106  POPE O32  OBL           -0.63       15.9994       0
   26044 MEMB 106  POPE C32  CTL2          -0.22        12.011       0
   26045 MEMB 106  POPE H2X  HAL2           0.09         1.008       0
   26046 MEMB 106  POPE H2Y  HAL2           0.09         1.008       0
   26047 MEMB 106  POPE C23  CTL2          -0.18        12.011       0
   26048 MEMB 106  POPE H3R  HAL2           0.09         1.008       0
   26049 MEMB 106  POPE H3S  HAL2           0.09         1.008       0
   26050 MEMB 106  POPE C24  CTL2          -0.18        12.011       0
   26051 MEMB 106  POPE H4R  HAL2           0.09         1.008       0
   26052 MEMB 106  POPE H4S  HAL2           0.09         1.008       0
   26053 MEMB 106  POPE C25  CTL2          -0.18        12.011       0
   26054 MEMB 106  POPE H5R  HAL2           0.09         1.008       0
   26055 MEMB 106  POPE H5S  HAL2           0.09         1.008       0
   26056 MEMB 106  POPE C26  CTL2          -0.18        12.011       0
   26057 MEMB 106  POPE H6R  HAL2           0.09         1.008       0
   26058 MEMB 106  POPE H6S  HAL2           0.09         1.008       0
   26059 MEMB 106  POPE C27  CTL2          -0.18        12.011       0
   26060 MEMB 106  POPE H7R  HAL2           0.09         1.008       0
   26061 MEMB 106  POPE H7S  HAL2           0.09         1.008       0
   26062 MEMB 106  POPE C28  CTL2          -0.18        12.011       0
   26063 MEMB 106  POPE H8R  HAL2           0.09         1.008       0
   26064 MEMB 106  POPE H8S  HAL2           0.09         1.008       0
   26065 MEMB 106  POPE C29  CEL1          -0.15        12.011       0
   26066 MEMB 106  POPE H91  HEL1           0.15         1.008       0
   26067 MEMB 106  POPE C210 CEL1          -0.15        12.011       0
   26068 MEMB 106  POPE H101 HEL1           0.15         1.008       0
   26069 MEMB 106  POPE C211 CTL2          -0.18        12.011       0
   26070 MEMB 106  POPE H11R HAL2           0.09         1.008       0
   26071 MEMB 106  POPE H11S HAL2           0.09         1.008       0
   26072 MEMB 106  POPE C212 CTL2          -0.18        12.011       0
   26073 MEMB 106  POPE H12R HAL2           0.09         1.008       0
   26074 MEMB 106  POPE H12S HAL2           0.09         1.008       0
   26075 MEMB 106  POPE C213 CTL2          -0.18        12.011       0
   26076 MEMB 106  POPE H13R HAL2           0.09         1.008       0
   26077 MEMB 106  POPE H13S HAL2           0.09         1.008       0
   26078 MEMB 106  POPE C214 CTL2          -0.18        12.011       0
   26079 MEMB 106  POPE H14R HAL2           0.09         1.008       0
   26080 MEMB 106  POPE H14S HAL2           0.09         1.008       0
   26081 MEMB 106  POPE C215 CTL2          -0.18        12.011       0
   26082 MEMB 106  POPE H15R HAL2           0.09         1.008       0
   26083 MEMB 106  POPE H15S HAL2           0.09         1.008       0
   26084 MEMB 106  POPE C216 CTL2          -0.18        12.011       0
   26085 MEMB 106  POPE H16R HAL2           0.09         1.008       0
   26086 MEMB 106  POPE H16S HAL2           0.09         1.008       0
   26087 MEMB 106  POPE C217 CTL2          -0.18        12.011       0
   26088 MEMB 106  POPE H17R HAL2           0.09         1.008       0
   26089 MEMB 106  POPE H17S HAL2           0.09         1.008       0
   26090 MEMB 106  POPE C218 CTL3          -0.27        12.011       0
   26091 MEMB 106  POPE H18R HAL3           0.09         1.008       0
   26092 MEMB 106  POPE H18S HAL3           0.09         1.008       0
   26093 MEMB 106  POPE H18T HAL3           0.09         1.008       0
   26094 MEMB 106  POPE C33  CTL2          -0.18        12.011       0
   26095 MEMB 106  POPE H3X  HAL2           0.09         1.008       0
   26096 MEMB 106  POPE H3Y  HAL2           0.09         1.008       0
   26097 MEMB 106  POPE C34  CTL2          -0.18        12.011       0
   26098 MEMB 106  POPE H4X  HAL2           0.09         1.008       0
   26099 MEMB 106  POPE H4Y  HAL2           0.09         1.008       0
   26100 MEMB 106  POPE C35  CTL2          -0.18        12.011       0
   26101 MEMB 106  POPE H5X  HAL2           0.09         1.008       0
   26102 MEMB 106  POPE H5Y  HAL2           0.09         1.008       0
   26103 MEMB 106  POPE C36  CTL2          -0.18        12.011       0
   26104 MEMB 106  POPE H6X  HAL2           0.09         1.008       0
   26105 MEMB 106  POPE H6Y  HAL2           0.09         1.008       0
   26106 MEMB 106  POPE C37  CTL2          -0.18        12.011       0
   26107 MEMB 106  POPE H7X  HAL2           0.09         1.008       0
   26108 MEMB 106  POPE H7Y  HAL2           0.09         1.008       0
   26109 MEMB 106  POPE C38  CTL2          -0.18        12.011       0
   26110 MEMB 106  POPE H8X  HAL2           0.09         1.008       0
   26111 MEMB 106  POPE H8Y  HAL2           0.09         1.008       0
   26112 MEMB 106  POPE C39  CTL2          -0.18        12.011       0
   26113 MEMB 106  POPE H9X  HAL2           0.09         1.008       0
   26114 MEMB 106  POPE H9Y  HAL2           0.09         1.008       0
   26115 MEMB 106  POPE C310 CTL2          -0.18        12.011       0
   26116 MEMB 106  POPE H10X HAL2           0.09         1.008       0
   26117 MEMB 106  POPE H10Y HAL2           0.09         1.008       0
   26118 MEMB 106  POPE C311 CTL2          -0.18        12.011       0
   26119 MEMB 106  POPE H11X HAL2           0.09         1.008       0
   26120 MEMB 106  POPE H11Y HAL2           0.09         1.008       0
   26121 MEMB 106  POPE C312 CTL2          -0.18        12.011       0
   26122 MEMB 106  POPE H12X HAL2           0.09         1.008       0
   26123 MEMB 106  POPE H12Y HAL2           0.09         1.008       0
   26124 MEMB 106  POPE C313 CTL2          -0.18        12.011       0
   26125 MEMB 106  POPE H13X HAL2           0.09         1.008       0
   26126 MEMB 106  POPE H13Y HAL2           0.09         1.008       0
   26127 MEMB 106  POPE C314 CTL2          -0.18        12.011       0
   26128 MEMB 106  POPE H14X HAL2           0.09         1.008       0
   26129 MEMB 106  POPE H14Y HAL2           0.09         1.008       0
   26130 MEMB 106  POPE C315 CTL2          -0.18        12.011       0
   26131 MEMB 106  POPE H15X HAL2           0.09         1.008       0
   26132 MEMB 106  POPE H15Y HAL2           0.09         1.008       0
   26133 MEMB 106  POPE C316 CTL3          -0.27        12.011       0
   26134 MEMB 106  POPE H16X HAL3           0.09         1.008       0
   26135 MEMB 106  POPE H16Y HAL3           0.09         1.008       0
   26136 MEMB 106  POPE H16Z HAL3           0.09         1.008       0
   26137 MEMB 107  PSM  N    NTL            -0.6        14.007       0
   26138 MEMB 107  PSM  C15  CTL5          -0.35        12.011       0
   26139 MEMB 107  PSM  H15A HL             0.25         1.008       0
   26140 MEMB 107  PSM  H15B HL             0.25         1.008       0
   26141 MEMB 107  PSM  H15C HL             0.25         1.008       0
   26142 MEMB 107  PSM  C14  CTL5          -0.35        12.011       0
   26143 MEMB 107  PSM  H14A HL             0.25         1.008       0
   26144 MEMB 107  PSM  H14B HL             0.25         1.008       0
   26145 MEMB 107  PSM  H14C HL             0.25         1.008       0
   26146 MEMB 107  PSM  C13  CTL5          -0.35        12.011       0
   26147 MEMB 107  PSM  H13A HL             0.25         1.008       0
   26148 MEMB 107  PSM  H13B HL             0.25         1.008       0
   26149 MEMB 107  PSM  H13C HL             0.25         1.008       0
   26150 MEMB 107  PSM  C12  CTL2           -0.1        12.011       0
   26151 MEMB 107  PSM  H12A HL             0.25         1.008       0
   26152 MEMB 107  PSM  H12B HL             0.25         1.008       0
   26153 MEMB 107  PSM  C11  CTL2          -0.08        12.011       0
   26154 MEMB 107  PSM  H11A HAL2           0.09         1.008       0
   26155 MEMB 107  PSM  H11B HAL2           0.09         1.008       0
   26156 MEMB 107  PSM  P    PL              1.5        30.974       0
   26157 MEMB 107  PSM  O13  O2L           -0.78       15.9994       0
   26158 MEMB 107  PSM  O14  O2L           -0.78       15.9994       0
   26159 MEMB 107  PSM  O11  OSLP          -0.57       15.9994       0
   26160 MEMB 107  PSM  O12  OSLP          -0.57       15.9994       0
   26161 MEMB 107  PSM  C1S  CTL2          -0.08        12.011       0
   26162 MEMB 107  PSM  H1S  HAL2           0.09         1.008       0
   26163 MEMB 107  PSM  H1T  HAL2           0.09         1.008       0
   26164 MEMB 107  PSM  NF   NHL            -0.7        14.007       0
   26165 MEMB 107  PSM  HNF  H              0.35         1.008       0
   26166 MEMB 107  PSM  C2S  CTL1            0.3        12.011       0
   26167 MEMB 107  PSM  H2S  HAL1           0.05         1.008       0
   26168 MEMB 107  PSM  C3S  CTO1            0.5        12.011       0
   26169 MEMB 107  PSM  H3S  HAL1          -0.11         1.008       0
   26170 MEMB 107  PSM  O3   OHL           -0.69       15.9994       0
   26171 MEMB 107  PSM  HO3  HOL             0.3         1.008       0
   26172 MEMB 107  PSM  C4S  CEL3          -0.15        12.011       0
   26173 MEMB 107  PSM  H4S  HEL1           0.15         1.008       0
   26174 MEMB 107  PSM  C5S  CEL3          -0.15        12.011       0
   26175 MEMB 107  PSM  H5S  HEL1           0.15         1.008       0
   26176 MEMB 107  PSM  C6S  CTL2          -0.18        12.011       0
   26177 MEMB 107  PSM  H6S  HAL2           0.09         1.008       0
   26178 MEMB 107  PSM  H6T  HAL2           0.09         1.008       0
   26179 MEMB 107  PSM  C7S  CTL2          -0.18        12.011       0
   26180 MEMB 107  PSM  H7S  HAL2           0.09         1.008       0
   26181 MEMB 107  PSM  H7T  HAL2           0.09         1.008       0
   26182 MEMB 107  PSM  C8S  CTL2          -0.18        12.011       0
   26183 MEMB 107  PSM  H8S  HAL2           0.09         1.008       0
   26184 MEMB 107  PSM  H8T  HAL2           0.09         1.008       0
   26185 MEMB 107  PSM  C9S  CTL2          -0.18        12.011       0
   26186 MEMB 107  PSM  H9S  HAL2           0.09         1.008       0
   26187 MEMB 107  PSM  H9T  HAL2           0.09         1.008       0
   26188 MEMB 107  PSM  C10S CTL2          -0.18        12.011       0
   26189 MEMB 107  PSM  H10S HAL2           0.09         1.008       0
   26190 MEMB 107  PSM  H10T HAL2           0.09         1.008       0
   26191 MEMB 107  PSM  C11S CTL2          -0.18        12.011       0
   26192 MEMB 107  PSM  H11S HAL2           0.09         1.008       0
   26193 MEMB 107  PSM  H11T HAL2           0.09         1.008       0
   26194 MEMB 107  PSM  C12S CTL2          -0.18        12.011       0
   26195 MEMB 107  PSM  H12S HAL2           0.09         1.008       0
   26196 MEMB 107  PSM  H12T HAL2           0.09         1.008       0
   26197 MEMB 107  PSM  C13S CTL2          -0.18        12.011       0
   26198 MEMB 107  PSM  H13S HAL2           0.09         1.008       0
   26199 MEMB 107  PSM  H13T HAL2           0.09         1.008       0
   26200 MEMB 107  PSM  C14S CTL2          -0.18        12.011       0
   26201 MEMB 107  PSM  H14S HAL2           0.09         1.008       0
   26202 MEMB 107  PSM  H14T HAL2           0.09         1.008       0
   26203 MEMB 107  PSM  C15S CTL2          -0.18        12.011       0
   26204 MEMB 107  PSM  H15S HAL2           0.09         1.008       0
   26205 MEMB 107  PSM  H15T HAL2           0.09         1.008       0
   26206 MEMB 107  PSM  C16S CTL2          -0.18        12.011       0
   26207 MEMB 107  PSM  H16S HAL2           0.09         1.008       0
   26208 MEMB 107  PSM  H16T HAL2           0.09         1.008       0
   26209 MEMB 107  PSM  C17S CTL2          -0.18        12.011       0
   26210 MEMB 107  PSM  H17S HAL2           0.09         1.008       0
   26211 MEMB 107  PSM  H17T HAL2           0.09         1.008       0
   26212 MEMB 107  PSM  C18S CTL3          -0.27        12.011       0
   26213 MEMB 107  PSM  H18S HAL3           0.09         1.008       0
   26214 MEMB 107  PSM  H18T HAL3           0.09         1.008       0
   26215 MEMB 107  PSM  H18U HAL3           0.09         1.008       0
   26216 MEMB 107  PSM  C1F  C              0.55        12.011       0
   26217 MEMB 107  PSM  OF   O              -0.6        15.999       0
   26218 MEMB 107  PSM  C2F  CTL2          -0.07        12.011       0
   26219 MEMB 107  PSM  H2F  HAL2           0.06         1.008       0
   26220 MEMB 107  PSM  H2G  HAL2           0.06         1.008       0
   26221 MEMB 107  PSM  C3F  CTL2          -0.18        12.011       0
   26222 MEMB 107  PSM  H3F  HAL2           0.09         1.008       0
   26223 MEMB 107  PSM  H3G  HAL2           0.09         1.008       0
   26224 MEMB 107  PSM  C4F  CTL2          -0.18        12.011       0
   26225 MEMB 107  PSM  H4F  HAL2           0.09         1.008       0
   26226 MEMB 107  PSM  H4G  HAL2           0.09         1.008       0
   26227 MEMB 107  PSM  C5F  CTL2          -0.18        12.011       0
   26228 MEMB 107  PSM  H5F  HAL2           0.09         1.008       0
   26229 MEMB 107  PSM  H5G  HAL2           0.09         1.008       0
   26230 MEMB 107  PSM  C6F  CTL2          -0.18        12.011       0
   26231 MEMB 107  PSM  H6F  HAL2           0.09         1.008       0
   26232 MEMB 107  PSM  H6G  HAL2           0.09         1.008       0
   26233 MEMB 107  PSM  C7F  CTL2          -0.18        12.011       0
   26234 MEMB 107  PSM  H7F  HAL2           0.09         1.008       0
   26235 MEMB 107  PSM  H7G  HAL2           0.09         1.008       0
   26236 MEMB 107  PSM  C8F  CTL2          -0.18        12.011       0
   26237 MEMB 107  PSM  H8F  HAL2           0.09         1.008       0
   26238 MEMB 107  PSM  H8G  HAL2           0.09         1.008       0
   26239 MEMB 107  PSM  C9F  CTL2          -0.18        12.011       0
   26240 MEMB 107  PSM  H9F  HAL2           0.09         1.008       0
   26241 MEMB 107  PSM  H9G  HAL2           0.09         1.008       0
   26242 MEMB 107  PSM  C10F CTL2          -0.18        12.011       0
   26243 MEMB 107  PSM  H10F HAL2           0.09         1.008       0
   26244 MEMB 107  PSM  H10G HAL2           0.09         1.008       0
   26245 MEMB 107  PSM  C11F CTL2          -0.18        12.011       0
   26246 MEMB 107  PSM  H11F HAL2           0.09         1.008       0
   26247 MEMB 107  PSM  H11G HAL2           0.09         1.008       0
   26248 MEMB 107  PSM  C12F CTL2          -0.18        12.011       0
   26249 MEMB 107  PSM  H12F HAL2           0.09         1.008       0
   26250 MEMB 107  PSM  H12G HAL2           0.09         1.008       0
   26251 MEMB 107  PSM  C13F CTL2          -0.18        12.011       0
   26252 MEMB 107  PSM  H13F HAL2           0.09         1.008       0
   26253 MEMB 107  PSM  H13G HAL2           0.09         1.008       0
   26254 MEMB 107  PSM  C14F CTL2          -0.18        12.011       0
   26255 MEMB 107  PSM  H14F HAL2           0.09         1.008       0
   26256 MEMB 107  PSM  H14G HAL2           0.09         1.008       0
   26257 MEMB 107  PSM  C15F CTL2          -0.18        12.011       0
   26258 MEMB 107  PSM  H15F HAL2           0.09         1.008       0
   26259 MEMB 107  PSM  H15G HAL2           0.09         1.008       0
   26260 MEMB 107  PSM  C16F CTL3          -0.27        12.011       0
   26261 MEMB 107  PSM  H16F HAL3           0.09         1.008       0
   26262 MEMB 107  PSM  H16G HAL3           0.09         1.008       0
   26263 MEMB 107  PSM  H16H HAL3           0.09         1.008       0
   26264 MEMB 108  POPC N    NTL            -0.6        14.007       0
   26265 MEMB 108  POPC C12  CTL2           -0.1        12.011       0
   26266 MEMB 108  POPC H12A HL             0.25         1.008       0
   26267 MEMB 108  POPC H12B HL             0.25         1.008       0
   26268 MEMB 108  POPC C13  CTL5          -0.35        12.011       0
   26269 MEMB 108  POPC H13A HL             0.25         1.008       0
   26270 MEMB 108  POPC H13B HL             0.25         1.008       0
   26271 MEMB 108  POPC H13C HL             0.25         1.008       0
   26272 MEMB 108  POPC C14  CTL5          -0.35        12.011       0
   26273 MEMB 108  POPC H14A HL             0.25         1.008       0
   26274 MEMB 108  POPC H14B HL             0.25         1.008       0
   26275 MEMB 108  POPC H14C HL             0.25         1.008       0
   26276 MEMB 108  POPC C15  CTL5          -0.35        12.011       0
   26277 MEMB 108  POPC H15A HL             0.25         1.008       0
   26278 MEMB 108  POPC H15B HL             0.25         1.008       0
   26279 MEMB 108  POPC H15C HL             0.25         1.008       0
   26280 MEMB 108  POPC C11  CTL2          -0.08        12.011       0
   26281 MEMB 108  POPC H11A HAL2           0.09         1.008       0
   26282 MEMB 108  POPC H11B HAL2           0.09         1.008       0
   26283 MEMB 108  POPC P    PL              1.5        30.974       0
   26284 MEMB 108  POPC O13  O2L           -0.78       15.9994       0
   26285 MEMB 108  POPC O14  O2L           -0.78       15.9994       0
   26286 MEMB 108  POPC O12  OSLP          -0.57       15.9994       0
   26287 MEMB 108  POPC O11  OSLP          -0.57       15.9994       0
   26288 MEMB 108  POPC C1   CTL2          -0.08        12.011       0
   26289 MEMB 108  POPC HA   HAL2           0.09         1.008       0
   26290 MEMB 108  POPC HB   HAL2           0.09         1.008       0
   26291 MEMB 108  POPC C2   CTL1           0.17        12.011       0
   26292 MEMB 108  POPC HS   HAL1           0.09         1.008       0
   26293 MEMB 108  POPC O21  OSL           -0.49       15.9994       0
   26294 MEMB 108  POPC C21  CL              0.9        12.011       0
   26295 MEMB 108  POPC O22  OBL           -0.63       15.9994       0
   26296 MEMB 108  POPC C22  CTL2          -0.22        12.011       0
   26297 MEMB 108  POPC H2R  HAL2           0.09         1.008       0
   26298 MEMB 108  POPC H2S  HAL2           0.09         1.008       0
   26299 MEMB 108  POPC C3   CTL2           0.08        12.011       0
   26300 MEMB 108  POPC HX   HAL2           0.09         1.008       0
   26301 MEMB 108  POPC HY   HAL2           0.09         1.008       0
   26302 MEMB 108  POPC O31  OSL           -0.49       15.9994       0
   26303 MEMB 108  POPC C31  CL              0.9        12.011       0
   26304 MEMB 108  POPC O32  OBL           -0.63       15.9994       0
   26305 MEMB 108  POPC C32  CTL2          -0.22        12.011       0
   26306 MEMB 108  POPC H2X  HAL2           0.09         1.008       0
   26307 MEMB 108  POPC H2Y  HAL2           0.09         1.008       0
   26308 MEMB 108  POPC C23  CTL2          -0.18        12.011       0
   26309 MEMB 108  POPC H3R  HAL2           0.09         1.008       0
   26310 MEMB 108  POPC H3S  HAL2           0.09         1.008       0
   26311 MEMB 108  POPC C24  CTL2          -0.18        12.011       0
   26312 MEMB 108  POPC H4R  HAL2           0.09         1.008       0
   26313 MEMB 108  POPC H4S  HAL2           0.09         1.008       0
   26314 MEMB 108  POPC C25  CTL2          -0.18        12.011       0
   26315 MEMB 108  POPC H5R  HAL2           0.09         1.008       0
   26316 MEMB 108  POPC H5S  HAL2           0.09         1.008       0
   26317 MEMB 108  POPC C26  CTL2          -0.18        12.011       0
   26318 MEMB 108  POPC H6R  HAL2           0.09         1.008       0
   26319 MEMB 108  POPC H6S  HAL2           0.09         1.008       0
   26320 MEMB 108  POPC C27  CTL2          -0.18        12.011       0
   26321 MEMB 108  POPC H7R  HAL2           0.09         1.008       0
   26322 MEMB 108  POPC H7S  HAL2           0.09         1.008       0
   26323 MEMB 108  POPC C28  CTL2          -0.18        12.011       0
   26324 MEMB 108  POPC H8R  HAL2           0.09         1.008       0
   26325 MEMB 108  POPC H8S  HAL2           0.09         1.008       0
   26326 MEMB 108  POPC C29  CEL1          -0.15        12.011       0
   26327 MEMB 108  POPC H91  HEL1           0.15         1.008       0
   26328 MEMB 108  POPC C210 CEL1          -0.15        12.011       0
   26329 MEMB 108  POPC H101 HEL1           0.15         1.008       0
   26330 MEMB 108  POPC C211 CTL2          -0.18        12.011       0
   26331 MEMB 108  POPC H11R HAL2           0.09         1.008       0
   26332 MEMB 108  POPC H11S HAL2           0.09         1.008       0
   26333 MEMB 108  POPC C212 CTL2          -0.18        12.011       0
   26334 MEMB 108  POPC H12R HAL2           0.09         1.008       0
   26335 MEMB 108  POPC H12S HAL2           0.09         1.008       0
   26336 MEMB 108  POPC C213 CTL2          -0.18        12.011       0
   26337 MEMB 108  POPC H13R HAL2           0.09         1.008       0
   26338 MEMB 108  POPC H13S HAL2           0.09         1.008       0
   26339 MEMB 108  POPC C214 CTL2          -0.18        12.011       0
   26340 MEMB 108  POPC H14R HAL2           0.09         1.008       0
   26341 MEMB 108  POPC H14S HAL2           0.09         1.008       0
   26342 MEMB 108  POPC C215 CTL2          -0.18        12.011       0
   26343 MEMB 108  POPC H15R HAL2           0.09         1.008       0
   26344 MEMB 108  POPC H15S HAL2           0.09         1.008       0
   26345 MEMB 108  POPC C216 CTL2          -0.18        12.011       0
   26346 MEMB 108  POPC H16R HAL2           0.09         1.008       0
   26347 MEMB 108  POPC H16S HAL2           0.09         1.008       0
   26348 MEMB 108  POPC C217 CTL2          -0.18        12.011       0
   26349 MEMB 108  POPC H17R HAL2           0.09         1.008       0
   26350 MEMB 108  POPC H17S HAL2           0.09         1.008       0
   26351 MEMB 108  POPC C218 CTL3          -0.27        12.011       0
   26352 MEMB 108  POPC H18R HAL3           0.09         1.008       0
   26353 MEMB 108  POPC H18S HAL3           0.09         1.008       0
   26354 MEMB 108  POPC H18T HAL3           0.09         1.008       0
   26355 MEMB 108  POPC C33  CTL2          -0.18        12.011       0
   26356 MEMB 108  POPC H3X  HAL2           0.09         1.008       0
   26357 MEMB 108  POPC H3Y  HAL2           0.09         1.008       0
   26358 MEMB 108  POPC C34  CTL2          -0.18        12.011       0
   26359 MEMB 108  POPC H4X  HAL2           0.09         1.008       0
   26360 MEMB 108  POPC H4Y  HAL2           0.09         1.008       0
   26361 MEMB 108  POPC C35  CTL2          -0.18        12.011       0
   26362 MEMB 108  POPC H5X  HAL2           0.09         1.008       0
   26363 MEMB 108  POPC H5Y  HAL2           0.09         1.008       0
   26364 MEMB 108  POPC C36  CTL2          -0.18        12.011       0
   26365 MEMB 108  POPC H6X  HAL2           0.09         1.008       0
   26366 MEMB 108  POPC H6Y  HAL2           0.09         1.008       0
   26367 MEMB 108  POPC C37  CTL2          -0.18        12.011       0
   26368 MEMB 108  POPC H7X  HAL2           0.09         1.008       0
   26369 MEMB 108  POPC H7Y  HAL2           0.09         1.008       0
   26370 MEMB 108  POPC C38  CTL2          -0.18        12.011       0
   26371 MEMB 108  POPC H8X  HAL2           0.09         1.008       0
   26372 MEMB 108  POPC H8Y  HAL2           0.09         1.008       0
   26373 MEMB 108  POPC C39  CTL2          -0.18        12.011       0
   26374 MEMB 108  POPC H9X  HAL2           0.09         1.008       0
   26375 MEMB 108  POPC H9Y  HAL2           0.09         1.008       0
   26376 MEMB 108  POPC C310 CTL2          -0.18        12.011       0
   26377 MEMB 108  POPC H10X HAL2           0.09         1.008       0
   26378 MEMB 108  POPC H10Y HAL2           0.09         1.008       0
   26379 MEMB 108  POPC C311 CTL2          -0.18        12.011       0
   26380 MEMB 108  POPC H11X HAL2           0.09         1.008       0
   26381 MEMB 108  POPC H11Y HAL2           0.09         1.008       0
   26382 MEMB 108  POPC C312 CTL2          -0.18        12.011       0
   26383 MEMB 108  POPC H12X HAL2           0.09         1.008       0
   26384 MEMB 108  POPC H12Y HAL2           0.09         1.008       0
   26385 MEMB 108  POPC C313 CTL2          -0.18        12.011       0
   26386 MEMB 108  POPC H13X HAL2           0.09         1.008       0
   26387 MEMB 108  POPC H13Y HAL2           0.09         1.008       0
   26388 MEMB 108  POPC C314 CTL2          -0.18        12.011       0
   26389 MEMB 108  POPC H14X HAL2           0.09         1.008       0
   26390 MEMB 108  POPC H14Y HAL2           0.09         1.008       0
   26391 MEMB 108  POPC C315 CTL2          -0.18        12.011       0
   26392 MEMB 108  POPC H15X HAL2           0.09         1.008       0
   26393 MEMB 108  POPC H15Y HAL2           0.09         1.008       0
   26394 MEMB 108  POPC C316 CTL3          -0.27        12.011       0
   26395 MEMB 108  POPC H16X HAL3           0.09         1.008       0
   26396 MEMB 108  POPC H16Y HAL3           0.09         1.008       0
   26397 MEMB 108  POPC H16Z HAL3           0.09         1.008       0
   26398 MEMB 109  POPE N    NH3L           -0.3        14.007       0
   26399 MEMB 109  POPE HN1  HCL            0.33         1.008       0
   26400 MEMB 109  POPE HN2  HCL            0.33         1.008       0
   26401 MEMB 109  POPE HN3  HCL            0.33         1.008       0
   26402 MEMB 109  POPE C12  CTL2           0.13        12.011       0
   26403 MEMB 109  POPE H12A HAL2           0.09         1.008       0
   26404 MEMB 109  POPE H12B HAL2           0.09         1.008       0
   26405 MEMB 109  POPE C11  CTL2          -0.08        12.011       0
   26406 MEMB 109  POPE H11A HAL2           0.09         1.008       0
   26407 MEMB 109  POPE H11B HAL2           0.09         1.008       0
   26408 MEMB 109  POPE P    PL              1.5        30.974       0
   26409 MEMB 109  POPE O13  O2L           -0.78       15.9994       0
   26410 MEMB 109  POPE O14  O2L           -0.78       15.9994       0
   26411 MEMB 109  POPE O11  OSLP          -0.57       15.9994       0
   26412 MEMB 109  POPE O12  OSLP          -0.57       15.9994       0
   26413 MEMB 109  POPE C1   CTL2          -0.08        12.011       0
   26414 MEMB 109  POPE HA   HAL2           0.09         1.008       0
   26415 MEMB 109  POPE HB   HAL2           0.09         1.008       0
   26416 MEMB 109  POPE C2   CTL1           0.17        12.011       0
   26417 MEMB 109  POPE HS   HAL1           0.09         1.008       0
   26418 MEMB 109  POPE O21  OSL           -0.49       15.9994       0
   26419 MEMB 109  POPE C21  CL              0.9        12.011       0
   26420 MEMB 109  POPE O22  OBL           -0.63       15.9994       0
   26421 MEMB 109  POPE C22  CTL2          -0.22        12.011       0
   26422 MEMB 109  POPE H2R  HAL2           0.09         1.008       0
   26423 MEMB 109  POPE H2S  HAL2           0.09         1.008       0
   26424 MEMB 109  POPE C3   CTL2           0.08        12.011       0
   26425 MEMB 109  POPE HX   HAL2           0.09         1.008       0
   26426 MEMB 109  POPE HY   HAL2           0.09         1.008       0
   26427 MEMB 109  POPE O31  OSL           -0.49       15.9994       0
   26428 MEMB 109  POPE C31  CL              0.9        12.011       0
   26429 MEMB 109  POPE O32  OBL           -0.63       15.9994       0
   26430 MEMB 109  POPE C32  CTL2          -0.22        12.011       0
   26431 MEMB 109  POPE H2X  HAL2           0.09         1.008       0
   26432 MEMB 109  POPE H2Y  HAL2           0.09         1.008       0
   26433 MEMB 109  POPE C23  CTL2          -0.18        12.011       0
   26434 MEMB 109  POPE H3R  HAL2           0.09         1.008       0
   26435 MEMB 109  POPE H3S  HAL2           0.09         1.008       0
   26436 MEMB 109  POPE C24  CTL2          -0.18        12.011       0
   26437 MEMB 109  POPE H4R  HAL2           0.09         1.008       0
   26438 MEMB 109  POPE H4S  HAL2           0.09         1.008       0
   26439 MEMB 109  POPE C25  CTL2          -0.18        12.011       0
   26440 MEMB 109  POPE H5R  HAL2           0.09         1.008       0
   26441 MEMB 109  POPE H5S  HAL2           0.09         1.008       0
   26442 MEMB 109  POPE C26  CTL2          -0.18        12.011       0
   26443 MEMB 109  POPE H6R  HAL2           0.09         1.008       0
   26444 MEMB 109  POPE H6S  HAL2           0.09         1.008       0
   26445 MEMB 109  POPE C27  CTL2          -0.18        12.011       0
   26446 MEMB 109  POPE H7R  HAL2           0.09         1.008       0
   26447 MEMB 109  POPE H7S  HAL2           0.09         1.008       0
   26448 MEMB 109  POPE C28  CTL2          -0.18        12.011       0
   26449 MEMB 109  POPE H8R  HAL2           0.09         1.008       0
   26450 MEMB 109  POPE H8S  HAL2           0.09         1.008       0
   26451 MEMB 109  POPE C29  CEL1          -0.15        12.011       0
   26452 MEMB 109  POPE H91  HEL1           0.15         1.008       0
   26453 MEMB 109  POPE C210 CEL1          -0.15        12.011       0
   26454 MEMB 109  POPE H101 HEL1           0.15         1.008       0
   26455 MEMB 109  POPE C211 CTL2          -0.18        12.011       0
   26456 MEMB 109  POPE H11R HAL2           0.09         1.008       0
   26457 MEMB 109  POPE H11S HAL2           0.09         1.008       0
   26458 MEMB 109  POPE C212 CTL2          -0.18        12.011       0
   26459 MEMB 109  POPE H12R HAL2           0.09         1.008       0
   26460 MEMB 109  POPE H12S HAL2           0.09         1.008       0
   26461 MEMB 109  POPE C213 CTL2          -0.18        12.011       0
   26462 MEMB 109  POPE H13R HAL2           0.09         1.008       0
   26463 MEMB 109  POPE H13S HAL2           0.09         1.008       0
   26464 MEMB 109  POPE C214 CTL2          -0.18        12.011       0
   26465 MEMB 109  POPE H14R HAL2           0.09         1.008       0
   26466 MEMB 109  POPE H14S HAL2           0.09         1.008       0
   26467 MEMB 109  POPE C215 CTL2          -0.18        12.011       0
   26468 MEMB 109  POPE H15R HAL2           0.09         1.008       0
   26469 MEMB 109  POPE H15S HAL2           0.09         1.008       0
   26470 MEMB 109  POPE C216 CTL2          -0.18        12.011       0
   26471 MEMB 109  POPE H16R HAL2           0.09         1.008       0
   26472 MEMB 109  POPE H16S HAL2           0.09         1.008       0
   26473 MEMB 109  POPE C217 CTL2          -0.18        12.011       0
   26474 MEMB 109  POPE H17R HAL2           0.09         1.008       0
   26475 MEMB 109  POPE H17S HAL2           0.09         1.008       0
   26476 MEMB 109  POPE C218 CTL3          -0.27        12.011       0
   26477 MEMB 109  POPE H18R HAL3           0.09         1.008       0
   26478 MEMB 109  POPE H18S HAL3           0.09         1.008       0
   26479 MEMB 109  POPE H18T HAL3           0.09         1.008       0
   26480 MEMB 109  POPE C33  CTL2          -0.18        12.011       0
   26481 MEMB 109  POPE H3X  HAL2           0.09         1.008       0
   26482 MEMB 109  POPE H3Y  HAL2           0.09         1.008       0
   26483 MEMB 109  POPE C34  CTL2          -0.18        12.011       0
   26484 MEMB 109  POPE H4X  HAL2           0.09         1.008       0
   26485 MEMB 109  POPE H4Y  HAL2           0.09         1.008       0
   26486 MEMB 109  POPE C35  CTL2          -0.18        12.011       0
   26487 MEMB 109  POPE H5X  HAL2           0.09         1.008       0
   26488 MEMB 109  POPE H5Y  HAL2           0.09         1.008       0
   26489 MEMB 109  POPE C36  CTL2          -0.18        12.011       0
   26490 MEMB 109  POPE H6X  HAL2           0.09         1.008       0
   26491 MEMB 109  POPE H6Y  HAL2           0.09         1.008       0
   26492 MEMB 109  POPE C37  CTL2          -0.18        12.011       0
   26493 MEMB 109  POPE H7X  HAL2           0.09         1.008       0
   26494 MEMB 109  POPE H7Y  HAL2           0.09         1.008       0
   26495 MEMB 109  POPE C38  CTL2          -0.18        12.011       0
   26496 MEMB 109  POPE H8X  HAL2           0.09         1.008       0
   26497 MEMB 109  POPE H8Y  HAL2           0.09         1.008       0
   26498 MEMB 109  POPE C39  CTL2          -0.18        12.011       0
   26499 MEMB 109  POPE H9X  HAL2           0.09         1.008       0
   26500 MEMB 109  POPE H9Y  HAL2           0.09         1.008       0
   26501 MEMB 109  POPE C310 CTL2          -0.18        12.011       0
   26502 MEMB 109  POPE H10X HAL2           0.09         1.008       0
   26503 MEMB 109  POPE H10Y HAL2           0.09         1.008       0
   26504 MEMB 109  POPE C311 CTL2          -0.18        12.011       0
   26505 MEMB 109  POPE H11X HAL2           0.09         1.008       0
   26506 MEMB 109  POPE H11Y HAL2           0.09         1.008       0
   26507 MEMB 109  POPE C312 CTL2          -0.18        12.011       0
   26508 MEMB 109  POPE H12X HAL2           0.09         1.008       0
   26509 MEMB 109  POPE H12Y HAL2           0.09         1.008       0
   26510 MEMB 109  POPE C313 CTL2          -0.18        12.011       0
   26511 MEMB 109  POPE H13X HAL2           0.09         1.008       0
   26512 MEMB 109  POPE H13Y HAL2           0.09         1.008       0
   26513 MEMB 109  POPE C314 CTL2          -0.18        12.011       0
   26514 MEMB 109  POPE H14X HAL2           0.09         1.008       0
   26515 MEMB 109  POPE H14Y HAL2           0.09         1.008       0
   26516 MEMB 109  POPE C315 CTL2          -0.18        12.011       0
   26517 MEMB 109  POPE H15X HAL2           0.09         1.008       0
   26518 MEMB 109  POPE H15Y HAL2           0.09         1.008       0
   26519 MEMB 109  POPE C316 CTL3          -0.27        12.011       0
   26520 MEMB 109  POPE H16X HAL3           0.09         1.008       0
   26521 MEMB 109  POPE H16Y HAL3           0.09         1.008       0
   26522 MEMB 109  POPE H16Z HAL3           0.09         1.008       0
   26523 MEMB 110  POPC N    NTL            -0.6        14.007       0
   26524 MEMB 110  POPC C12  CTL2           -0.1        12.011       0
   26525 MEMB 110  POPC H12A HL             0.25         1.008       0
   26526 MEMB 110  POPC H12B HL             0.25         1.008       0
   26527 MEMB 110  POPC C13  CTL5          -0.35        12.011       0
   26528 MEMB 110  POPC H13A HL             0.25         1.008       0
   26529 MEMB 110  POPC H13B HL             0.25         1.008       0
   26530 MEMB 110  POPC H13C HL             0.25         1.008       0
   26531 MEMB 110  POPC C14  CTL5          -0.35        12.011       0
   26532 MEMB 110  POPC H14A HL             0.25         1.008       0
   26533 MEMB 110  POPC H14B HL             0.25         1.008       0
   26534 MEMB 110  POPC H14C HL             0.25         1.008       0
   26535 MEMB 110  POPC C15  CTL5          -0.35        12.011       0
   26536 MEMB 110  POPC H15A HL             0.25         1.008       0
   26537 MEMB 110  POPC H15B HL             0.25         1.008       0
   26538 MEMB 110  POPC H15C HL             0.25         1.008       0
   26539 MEMB 110  POPC C11  CTL2          -0.08        12.011       0
   26540 MEMB 110  POPC H11A HAL2           0.09         1.008       0
   26541 MEMB 110  POPC H11B HAL2           0.09         1.008       0
   26542 MEMB 110  POPC P    PL              1.5        30.974       0
   26543 MEMB 110  POPC O13  O2L           -0.78       15.9994       0
   26544 MEMB 110  POPC O14  O2L           -0.78       15.9994       0
   26545 MEMB 110  POPC O12  OSLP          -0.57       15.9994       0
   26546 MEMB 110  POPC O11  OSLP          -0.57       15.9994       0
   26547 MEMB 110  POPC C1   CTL2          -0.08        12.011       0
   26548 MEMB 110  POPC HA   HAL2           0.09         1.008       0
   26549 MEMB 110  POPC HB   HAL2           0.09         1.008       0
   26550 MEMB 110  POPC C2   CTL1           0.17        12.011       0
   26551 MEMB 110  POPC HS   HAL1           0.09         1.008       0
   26552 MEMB 110  POPC O21  OSL           -0.49       15.9994       0
   26553 MEMB 110  POPC C21  CL              0.9        12.011       0
   26554 MEMB 110  POPC O22  OBL           -0.63       15.9994       0
   26555 MEMB 110  POPC C22  CTL2          -0.22        12.011       0
   26556 MEMB 110  POPC H2R  HAL2           0.09         1.008       0
   26557 MEMB 110  POPC H2S  HAL2           0.09         1.008       0
   26558 MEMB 110  POPC C3   CTL2           0.08        12.011       0
   26559 MEMB 110  POPC HX   HAL2           0.09         1.008       0
   26560 MEMB 110  POPC HY   HAL2           0.09         1.008       0
   26561 MEMB 110  POPC O31  OSL           -0.49       15.9994       0
   26562 MEMB 110  POPC C31  CL              0.9        12.011       0
   26563 MEMB 110  POPC O32  OBL           -0.63       15.9994       0
   26564 MEMB 110  POPC C32  CTL2          -0.22        12.011       0
   26565 MEMB 110  POPC H2X  HAL2           0.09         1.008       0
   26566 MEMB 110  POPC H2Y  HAL2           0.09         1.008       0
   26567 MEMB 110  POPC C23  CTL2          -0.18        12.011       0
   26568 MEMB 110  POPC H3R  HAL2           0.09         1.008       0
   26569 MEMB 110  POPC H3S  HAL2           0.09         1.008       0
   26570 MEMB 110  POPC C24  CTL2          -0.18        12.011       0
   26571 MEMB 110  POPC H4R  HAL2           0.09         1.008       0
   26572 MEMB 110  POPC H4S  HAL2           0.09         1.008       0
   26573 MEMB 110  POPC C25  CTL2          -0.18        12.011       0
   26574 MEMB 110  POPC H5R  HAL2           0.09         1.008       0
   26575 MEMB 110  POPC H5S  HAL2           0.09         1.008       0
   26576 MEMB 110  POPC C26  CTL2          -0.18        12.011       0
   26577 MEMB 110  POPC H6R  HAL2           0.09         1.008       0
   26578 MEMB 110  POPC H6S  HAL2           0.09         1.008       0
   26579 MEMB 110  POPC C27  CTL2          -0.18        12.011       0
   26580 MEMB 110  POPC H7R  HAL2           0.09         1.008       0
   26581 MEMB 110  POPC H7S  HAL2           0.09         1.008       0
   26582 MEMB 110  POPC C28  CTL2          -0.18        12.011       0
   26583 MEMB 110  POPC H8R  HAL2           0.09         1.008       0
   26584 MEMB 110  POPC H8S  HAL2           0.09         1.008       0
   26585 MEMB 110  POPC C29  CEL1          -0.15        12.011       0
   26586 MEMB 110  POPC H91  HEL1           0.15         1.008       0
   26587 MEMB 110  POPC C210 CEL1          -0.15        12.011       0
   26588 MEMB 110  POPC H101 HEL1           0.15         1.008       0
   26589 MEMB 110  POPC C211 CTL2          -0.18        12.011       0
   26590 MEMB 110  POPC H11R HAL2           0.09         1.008       0
   26591 MEMB 110  POPC H11S HAL2           0.09         1.008       0
   26592 MEMB 110  POPC C212 CTL2          -0.18        12.011       0
   26593 MEMB 110  POPC H12R HAL2           0.09         1.008       0
   26594 MEMB 110  POPC H12S HAL2           0.09         1.008       0
   26595 MEMB 110  POPC C213 CTL2          -0.18        12.011       0
   26596 MEMB 110  POPC H13R HAL2           0.09         1.008       0
   26597 MEMB 110  POPC H13S HAL2           0.09         1.008       0
   26598 MEMB 110  POPC C214 CTL2          -0.18        12.011       0
   26599 MEMB 110  POPC H14R HAL2           0.09         1.008       0
   26600 MEMB 110  POPC H14S HAL2           0.09         1.008       0
   26601 MEMB 110  POPC C215 CTL2          -0.18        12.011       0
   26602 MEMB 110  POPC H15R HAL2           0.09         1.008       0
   26603 MEMB 110  POPC H15S HAL2           0.09         1.008       0
   26604 MEMB 110  POPC C216 CTL2          -0.18        12.011       0
   26605 MEMB 110  POPC H16R HAL2           0.09         1.008       0
   26606 MEMB 110  POPC H16S HAL2           0.09         1.008       0
   26607 MEMB 110  POPC C217 CTL2          -0.18        12.011       0
   26608 MEMB 110  POPC H17R HAL2           0.09         1.008       0
   26609 MEMB 110  POPC H17S HAL2           0.09         1.008       0
   26610 MEMB 110  POPC C218 CTL3          -0.27        12.011       0
   26611 MEMB 110  POPC H18R HAL3           0.09         1.008       0
   26612 MEMB 110  POPC H18S HAL3           0.09         1.008       0
   26613 MEMB 110  POPC H18T HAL3           0.09         1.008       0
   26614 MEMB 110  POPC C33  CTL2          -0.18        12.011       0
   26615 MEMB 110  POPC H3X  HAL2           0.09         1.008       0
   26616 MEMB 110  POPC H3Y  HAL2           0.09         1.008       0
   26617 MEMB 110  POPC C34  CTL2          -0.18        12.011       0
   26618 MEMB 110  POPC H4X  HAL2           0.09         1.008       0
   26619 MEMB 110  POPC H4Y  HAL2           0.09         1.008       0
   26620 MEMB 110  POPC C35  CTL2          -0.18        12.011       0
   26621 MEMB 110  POPC H5X  HAL2           0.09         1.008       0
   26622 MEMB 110  POPC H5Y  HAL2           0.09         1.008       0
   26623 MEMB 110  POPC C36  CTL2          -0.18        12.011       0
   26624 MEMB 110  POPC H6X  HAL2           0.09         1.008       0
   26625 MEMB 110  POPC H6Y  HAL2           0.09         1.008       0
   26626 MEMB 110  POPC C37  CTL2          -0.18        12.011       0
   26627 MEMB 110  POPC H7X  HAL2           0.09         1.008       0
   26628 MEMB 110  POPC H7Y  HAL2           0.09         1.008       0
   26629 MEMB 110  POPC C38  CTL2          -0.18        12.011       0
   26630 MEMB 110  POPC H8X  HAL2           0.09         1.008       0
   26631 MEMB 110  POPC H8Y  HAL2           0.09         1.008       0
   26632 MEMB 110  POPC C39  CTL2          -0.18        12.011       0
   26633 MEMB 110  POPC H9X  HAL2           0.09         1.008       0
   26634 MEMB 110  POPC H9Y  HAL2           0.09         1.008       0
   26635 MEMB 110  POPC C310 CTL2          -0.18        12.011       0
   26636 MEMB 110  POPC H10X HAL2           0.09         1.008       0
   26637 MEMB 110  POPC H10Y HAL2           0.09         1.008       0
   26638 MEMB 110  POPC C311 CTL2          -0.18        12.011       0
   26639 MEMB 110  POPC H11X HAL2           0.09         1.008       0
   26640 MEMB 110  POPC H11Y HAL2           0.09         1.008       0
   26641 MEMB 110  POPC C312 CTL2          -0.18        12.011       0
   26642 MEMB 110  POPC H12X HAL2           0.09         1.008       0
   26643 MEMB 110  POPC H12Y HAL2           0.09         1.008       0
   26644 MEMB 110  POPC C313 CTL2          -0.18        12.011       0
   26645 MEMB 110  POPC H13X HAL2           0.09         1.008       0
   26646 MEMB 110  POPC H13Y HAL2           0.09         1.008       0
   26647 MEMB 110  POPC C314 CTL2          -0.18        12.011       0
   26648 MEMB 110  POPC H14X HAL2           0.09         1.008       0
   26649 MEMB 110  POPC H14Y HAL2           0.09         1.008       0
   26650 MEMB 110  POPC C315 CTL2          -0.18        12.011       0
   26651 MEMB 110  POPC H15X HAL2           0.09         1.008       0
   26652 MEMB 110  POPC H15Y HAL2           0.09         1.008       0
   26653 MEMB 110  POPC C316 CTL3          -0.27        12.011       0
   26654 MEMB 110  POPC H16X HAL3           0.09         1.008       0
   26655 MEMB 110  POPC H16Y HAL3           0.09         1.008       0
   26656 MEMB 110  POPC H16Z HAL3           0.09         1.008       0
   26657 MEMB 111  PSM  N    NTL            -0.6        14.007       0
   26658 MEMB 111  PSM  C15  CTL5          -0.35        12.011       0
   26659 MEMB 111  PSM  H15A HL             0.25         1.008       0
   26660 MEMB 111  PSM  H15B HL             0.25         1.008       0
   26661 MEMB 111  PSM  H15C HL             0.25         1.008       0
   26662 MEMB 111  PSM  C14  CTL5          -0.35        12.011       0
   26663 MEMB 111  PSM  H14A HL             0.25         1.008       0
   26664 MEMB 111  PSM  H14B HL             0.25         1.008       0
   26665 MEMB 111  PSM  H14C HL             0.25         1.008       0
   26666 MEMB 111  PSM  C13  CTL5          -0.35        12.011       0
   26667 MEMB 111  PSM  H13A HL             0.25         1.008       0
   26668 MEMB 111  PSM  H13B HL             0.25         1.008       0
   26669 MEMB 111  PSM  H13C HL             0.25         1.008       0
   26670 MEMB 111  PSM  C12  CTL2           -0.1        12.011       0
   26671 MEMB 111  PSM  H12A HL             0.25         1.008       0
   26672 MEMB 111  PSM  H12B HL             0.25         1.008       0
   26673 MEMB 111  PSM  C11  CTL2          -0.08        12.011       0
   26674 MEMB 111  PSM  H11A HAL2           0.09         1.008       0
   26675 MEMB 111  PSM  H11B HAL2           0.09         1.008       0
   26676 MEMB 111  PSM  P    PL              1.5        30.974       0
   26677 MEMB 111  PSM  O13  O2L           -0.78       15.9994       0
   26678 MEMB 111  PSM  O14  O2L           -0.78       15.9994       0
   26679 MEMB 111  PSM  O11  OSLP          -0.57       15.9994       0
   26680 MEMB 111  PSM  O12  OSLP          -0.57       15.9994       0
   26681 MEMB 111  PSM  C1S  CTL2          -0.08        12.011       0
   26682 MEMB 111  PSM  H1S  HAL2           0.09         1.008       0
   26683 MEMB 111  PSM  H1T  HAL2           0.09         1.008       0
   26684 MEMB 111  PSM  NF   NHL            -0.7        14.007       0
   26685 MEMB 111  PSM  HNF  H              0.35         1.008       0
   26686 MEMB 111  PSM  C2S  CTL1            0.3        12.011       0
   26687 MEMB 111  PSM  H2S  HAL1           0.05         1.008       0
   26688 MEMB 111  PSM  C3S  CTO1            0.5        12.011       0
   26689 MEMB 111  PSM  H3S  HAL1          -0.11         1.008       0
   26690 MEMB 111  PSM  O3   OHL           -0.69       15.9994       0
   26691 MEMB 111  PSM  HO3  HOL             0.3         1.008       0
   26692 MEMB 111  PSM  C4S  CEL3          -0.15        12.011       0
   26693 MEMB 111  PSM  H4S  HEL1           0.15         1.008       0
   26694 MEMB 111  PSM  C5S  CEL3          -0.15        12.011       0
   26695 MEMB 111  PSM  H5S  HEL1           0.15         1.008       0
   26696 MEMB 111  PSM  C6S  CTL2          -0.18        12.011       0
   26697 MEMB 111  PSM  H6S  HAL2           0.09         1.008       0
   26698 MEMB 111  PSM  H6T  HAL2           0.09         1.008       0
   26699 MEMB 111  PSM  C7S  CTL2          -0.18        12.011       0
   26700 MEMB 111  PSM  H7S  HAL2           0.09         1.008       0
   26701 MEMB 111  PSM  H7T  HAL2           0.09         1.008       0
   26702 MEMB 111  PSM  C8S  CTL2          -0.18        12.011       0
   26703 MEMB 111  PSM  H8S  HAL2           0.09         1.008       0
   26704 MEMB 111  PSM  H8T  HAL2           0.09         1.008       0
   26705 MEMB 111  PSM  C9S  CTL2          -0.18        12.011       0
   26706 MEMB 111  PSM  H9S  HAL2           0.09         1.008       0
   26707 MEMB 111  PSM  H9T  HAL2           0.09         1.008       0
   26708 MEMB 111  PSM  C10S CTL2          -0.18        12.011       0
   26709 MEMB 111  PSM  H10S HAL2           0.09         1.008       0
   26710 MEMB 111  PSM  H10T HAL2           0.09         1.008       0
   26711 MEMB 111  PSM  C11S CTL2          -0.18        12.011       0
   26712 MEMB 111  PSM  H11S HAL2           0.09         1.008       0
   26713 MEMB 111  PSM  H11T HAL2           0.09         1.008       0
   26714 MEMB 111  PSM  C12S CTL2          -0.18        12.011       0
   26715 MEMB 111  PSM  H12S HAL2           0.09         1.008       0
   26716 MEMB 111  PSM  H12T HAL2           0.09         1.008       0
   26717 MEMB 111  PSM  C13S CTL2          -0.18        12.011       0
   26718 MEMB 111  PSM  H13S HAL2           0.09         1.008       0
   26719 MEMB 111  PSM  H13T HAL2           0.09         1.008       0
   26720 MEMB 111  PSM  C14S CTL2          -0.18        12.011       0
   26721 MEMB 111  PSM  H14S HAL2           0.09         1.008       0
   26722 MEMB 111  PSM  H14T HAL2           0.09         1.008       0
   26723 MEMB 111  PSM  C15S CTL2          -0.18        12.011       0
   26724 MEMB 111  PSM  H15S HAL2           0.09         1.008       0
   26725 MEMB 111  PSM  H15T HAL2           0.09         1.008       0
   26726 MEMB 111  PSM  C16S CTL2          -0.18        12.011       0
   26727 MEMB 111  PSM  H16S HAL2           0.09         1.008       0
   26728 MEMB 111  PSM  H16T HAL2           0.09         1.008       0
   26729 MEMB 111  PSM  C17S CTL2          -0.18        12.011       0
   26730 MEMB 111  PSM  H17S HAL2           0.09         1.008       0
   26731 MEMB 111  PSM  H17T HAL2           0.09         1.008       0
   26732 MEMB 111  PSM  C18S CTL3          -0.27        12.011       0
   26733 MEMB 111  PSM  H18S HAL3           0.09         1.008       0
   26734 MEMB 111  PSM  H18T HAL3           0.09         1.008       0
   26735 MEMB 111  PSM  H18U HAL3           0.09         1.008       0
   26736 MEMB 111  PSM  C1F  C              0.55        12.011       0
   26737 MEMB 111  PSM  OF   O              -0.6        15.999       0
   26738 MEMB 111  PSM  C2F  CTL2          -0.07        12.011       0
   26739 MEMB 111  PSM  H2F  HAL2           0.06         1.008       0
   26740 MEMB 111  PSM  H2G  HAL2           0.06         1.008       0
   26741 MEMB 111  PSM  C3F  CTL2          -0.18        12.011       0
   26742 MEMB 111  PSM  H3F  HAL2           0.09         1.008       0
   26743 MEMB 111  PSM  H3G  HAL2           0.09         1.008       0
   26744 MEMB 111  PSM  C4F  CTL2          -0.18        12.011       0
   26745 MEMB 111  PSM  H4F  HAL2           0.09         1.008       0
   26746 MEMB 111  PSM  H4G  HAL2           0.09         1.008       0
   26747 MEMB 111  PSM  C5F  CTL2          -0.18        12.011       0
   26748 MEMB 111  PSM  H5F  HAL2           0.09         1.008       0
   26749 MEMB 111  PSM  H5G  HAL2           0.09         1.008       0
   26750 MEMB 111  PSM  C6F  CTL2          -0.18        12.011       0
   26751 MEMB 111  PSM  H6F  HAL2           0.09         1.008       0
   26752 MEMB 111  PSM  H6G  HAL2           0.09         1.008       0
   26753 MEMB 111  PSM  C7F  CTL2          -0.18        12.011       0
   26754 MEMB 111  PSM  H7F  HAL2           0.09         1.008       0
   26755 MEMB 111  PSM  H7G  HAL2           0.09         1.008       0
   26756 MEMB 111  PSM  C8F  CTL2          -0.18        12.011       0
   26757 MEMB 111  PSM  H8F  HAL2           0.09         1.008       0
   26758 MEMB 111  PSM  H8G  HAL2           0.09         1.008       0
   26759 MEMB 111  PSM  C9F  CTL2          -0.18        12.011       0
   26760 MEMB 111  PSM  H9F  HAL2           0.09         1.008       0
   26761 MEMB 111  PSM  H9G  HAL2           0.09         1.008       0
   26762 MEMB 111  PSM  C10F CTL2          -0.18        12.011       0
   26763 MEMB 111  PSM  H10F HAL2           0.09         1.008       0
   26764 MEMB 111  PSM  H10G HAL2           0.09         1.008       0
   26765 MEMB 111  PSM  C11F CTL2          -0.18        12.011       0
   26766 MEMB 111  PSM  H11F HAL2           0.09         1.008       0
   26767 MEMB 111  PSM  H11G HAL2           0.09         1.008       0
   26768 MEMB 111  PSM  C12F CTL2          -0.18        12.011       0
   26769 MEMB 111  PSM  H12F HAL2           0.09         1.008       0
   26770 MEMB 111  PSM  H12G HAL2           0.09         1.008       0
   26771 MEMB 111  PSM  C13F CTL2          -0.18        12.011       0
   26772 MEMB 111  PSM  H13F HAL2           0.09         1.008       0
   26773 MEMB 111  PSM  H13G HAL2           0.09         1.008       0
   26774 MEMB 111  PSM  C14F CTL2          -0.18        12.011       0
   26775 MEMB 111  PSM  H14F HAL2           0.09         1.008       0
   26776 MEMB 111  PSM  H14G HAL2           0.09         1.008       0
   26777 MEMB 111  PSM  C15F CTL2          -0.18        12.011       0
   26778 MEMB 111  PSM  H15F HAL2           0.09         1.008       0
   26779 MEMB 111  PSM  H15G HAL2           0.09         1.008       0
   26780 MEMB 111  PSM  C16F CTL3          -0.27        12.011       0
   26781 MEMB 111  PSM  H16F HAL3           0.09         1.008       0
   26782 MEMB 111  PSM  H16G HAL3           0.09         1.008       0
   26783 MEMB 111  PSM  H16H HAL3           0.09         1.008       0
   26784 MEMB 112  POPC N    NTL            -0.6        14.007       0
   26785 MEMB 112  POPC C12  CTL2           -0.1        12.011       0
   26786 MEMB 112  POPC H12A HL             0.25         1.008       0
   26787 MEMB 112  POPC H12B HL             0.25         1.008       0
   26788 MEMB 112  POPC C13  CTL5          -0.35        12.011       0
   26789 MEMB 112  POPC H13A HL             0.25         1.008       0
   26790 MEMB 112  POPC H13B HL             0.25         1.008       0
   26791 MEMB 112  POPC H13C HL             0.25         1.008       0
   26792 MEMB 112  POPC C14  CTL5          -0.35        12.011       0
   26793 MEMB 112  POPC H14A HL             0.25         1.008       0
   26794 MEMB 112  POPC H14B HL             0.25         1.008       0
   26795 MEMB 112  POPC H14C HL             0.25         1.008       0
   26796 MEMB 112  POPC C15  CTL5          -0.35        12.011       0
   26797 MEMB 112  POPC H15A HL             0.25         1.008       0
   26798 MEMB 112  POPC H15B HL             0.25         1.008       0
   26799 MEMB 112  POPC H15C HL             0.25         1.008       0
   26800 MEMB 112  POPC C11  CTL2          -0.08        12.011       0
   26801 MEMB 112  POPC H11A HAL2           0.09         1.008       0
   26802 MEMB 112  POPC H11B HAL2           0.09         1.008       0
   26803 MEMB 112  POPC P    PL              1.5        30.974       0
   26804 MEMB 112  POPC O13  O2L           -0.78       15.9994       0
   26805 MEMB 112  POPC O14  O2L           -0.78       15.9994       0
   26806 MEMB 112  POPC O12  OSLP          -0.57       15.9994       0
   26807 MEMB 112  POPC O11  OSLP          -0.57       15.9994       0
   26808 MEMB 112  POPC C1   CTL2          -0.08        12.011       0
   26809 MEMB 112  POPC HA   HAL2           0.09         1.008       0
   26810 MEMB 112  POPC HB   HAL2           0.09         1.008       0
   26811 MEMB 112  POPC C2   CTL1           0.17        12.011       0
   26812 MEMB 112  POPC HS   HAL1           0.09         1.008       0
   26813 MEMB 112  POPC O21  OSL           -0.49       15.9994       0
   26814 MEMB 112  POPC C21  CL              0.9        12.011       0
   26815 MEMB 112  POPC O22  OBL           -0.63       15.9994       0
   26816 MEMB 112  POPC C22  CTL2          -0.22        12.011       0
   26817 MEMB 112  POPC H2R  HAL2           0.09         1.008       0
   26818 MEMB 112  POPC H2S  HAL2           0.09         1.008       0
   26819 MEMB 112  POPC C3   CTL2           0.08        12.011       0
   26820 MEMB 112  POPC HX   HAL2           0.09         1.008       0
   26821 MEMB 112  POPC HY   HAL2           0.09         1.008       0
   26822 MEMB 112  POPC O31  OSL           -0.49       15.9994       0
   26823 MEMB 112  POPC C31  CL              0.9        12.011       0
   26824 MEMB 112  POPC O32  OBL           -0.63       15.9994       0
   26825 MEMB 112  POPC C32  CTL2          -0.22        12.011       0
   26826 MEMB 112  POPC H2X  HAL2           0.09         1.008       0
   26827 MEMB 112  POPC H2Y  HAL2           0.09         1.008       0
   26828 MEMB 112  POPC C23  CTL2          -0.18        12.011       0
   26829 MEMB 112  POPC H3R  HAL2           0.09         1.008       0
   26830 MEMB 112  POPC H3S  HAL2           0.09         1.008       0
   26831 MEMB 112  POPC C24  CTL2          -0.18        12.011       0
   26832 MEMB 112  POPC H4R  HAL2           0.09         1.008       0
   26833 MEMB 112  POPC H4S  HAL2           0.09         1.008       0
   26834 MEMB 112  POPC C25  CTL2          -0.18        12.011       0
   26835 MEMB 112  POPC H5R  HAL2           0.09         1.008       0
   26836 MEMB 112  POPC H5S  HAL2           0.09         1.008       0
   26837 MEMB 112  POPC C26  CTL2          -0.18        12.011       0
   26838 MEMB 112  POPC H6R  HAL2           0.09         1.008       0
   26839 MEMB 112  POPC H6S  HAL2           0.09         1.008       0
   26840 MEMB 112  POPC C27  CTL2          -0.18        12.011       0
   26841 MEMB 112  POPC H7R  HAL2           0.09         1.008       0
   26842 MEMB 112  POPC H7S  HAL2           0.09         1.008       0
   26843 MEMB 112  POPC C28  CTL2          -0.18        12.011       0
   26844 MEMB 112  POPC H8R  HAL2           0.09         1.008       0
   26845 MEMB 112  POPC H8S  HAL2           0.09         1.008       0
   26846 MEMB 112  POPC C29  CEL1          -0.15        12.011       0
   26847 MEMB 112  POPC H91  HEL1           0.15         1.008       0
   26848 MEMB 112  POPC C210 CEL1          -0.15        12.011       0
   26849 MEMB 112  POPC H101 HEL1           0.15         1.008       0
   26850 MEMB 112  POPC C211 CTL2          -0.18        12.011       0
   26851 MEMB 112  POPC H11R HAL2           0.09         1.008       0
   26852 MEMB 112  POPC H11S HAL2           0.09         1.008       0
   26853 MEMB 112  POPC C212 CTL2          -0.18        12.011       0
   26854 MEMB 112  POPC H12R HAL2           0.09         1.008       0
   26855 MEMB 112  POPC H12S HAL2           0.09         1.008       0
   26856 MEMB 112  POPC C213 CTL2          -0.18        12.011       0
   26857 MEMB 112  POPC H13R HAL2           0.09         1.008       0
   26858 MEMB 112  POPC H13S HAL2           0.09         1.008       0
   26859 MEMB 112  POPC C214 CTL2          -0.18        12.011       0
   26860 MEMB 112  POPC H14R HAL2           0.09         1.008       0
   26861 MEMB 112  POPC H14S HAL2           0.09         1.008       0
   26862 MEMB 112  POPC C215 CTL2          -0.18        12.011       0
   26863 MEMB 112  POPC H15R HAL2           0.09         1.008       0
   26864 MEMB 112  POPC H15S HAL2           0.09         1.008       0
   26865 MEMB 112  POPC C216 CTL2          -0.18        12.011       0
   26866 MEMB 112  POPC H16R HAL2           0.09         1.008       0
   26867 MEMB 112  POPC H16S HAL2           0.09         1.008       0
   26868 MEMB 112  POPC C217 CTL2          -0.18        12.011       0
   26869 MEMB 112  POPC H17R HAL2           0.09         1.008       0
   26870 MEMB 112  POPC H17S HAL2           0.09         1.008       0
   26871 MEMB 112  POPC C218 CTL3          -0.27        12.011       0
   26872 MEMB 112  POPC H18R HAL3           0.09         1.008       0
   26873 MEMB 112  POPC H18S HAL3           0.09         1.008       0
   26874 MEMB 112  POPC H18T HAL3           0.09         1.008       0
   26875 MEMB 112  POPC C33  CTL2          -0.18        12.011       0
   26876 MEMB 112  POPC H3X  HAL2           0.09         1.008       0
   26877 MEMB 112  POPC H3Y  HAL2           0.09         1.008       0
   26878 MEMB 112  POPC C34  CTL2          -0.18        12.011       0
   26879 MEMB 112  POPC H4X  HAL2           0.09         1.008       0
   26880 MEMB 112  POPC H4Y  HAL2           0.09         1.008       0
   26881 MEMB 112  POPC C35  CTL2          -0.18        12.011       0
   26882 MEMB 112  POPC H5X  HAL2           0.09         1.008       0
   26883 MEMB 112  POPC H5Y  HAL2           0.09         1.008       0
   26884 MEMB 112  POPC C36  CTL2          -0.18        12.011       0
   26885 MEMB 112  POPC H6X  HAL2           0.09         1.008       0
   26886 MEMB 112  POPC H6Y  HAL2           0.09         1.008       0
   26887 MEMB 112  POPC C37  CTL2          -0.18        12.011       0
   26888 MEMB 112  POPC H7X  HAL2           0.09         1.008       0
   26889 MEMB 112  POPC H7Y  HAL2           0.09         1.008       0
   26890 MEMB 112  POPC C38  CTL2          -0.18        12.011       0
   26891 MEMB 112  POPC H8X  HAL2           0.09         1.008       0
   26892 MEMB 112  POPC H8Y  HAL2           0.09         1.008       0
   26893 MEMB 112  POPC C39  CTL2          -0.18        12.011       0
   26894 MEMB 112  POPC H9X  HAL2           0.09         1.008       0
   26895 MEMB 112  POPC H9Y  HAL2           0.09         1.008       0
   26896 MEMB 112  POPC C310 CTL2          -0.18        12.011       0
   26897 MEMB 112  POPC H10X HAL2           0.09         1.008       0
   26898 MEMB 112  POPC H10Y HAL2           0.09         1.008       0
   26899 MEMB 112  POPC C311 CTL2          -0.18        12.011       0
   26900 MEMB 112  POPC H11X HAL2           0.09         1.008       0
   26901 MEMB 112  POPC H11Y HAL2           0.09         1.008       0
   26902 MEMB 112  POPC C312 CTL2          -0.18        12.011       0
   26903 MEMB 112  POPC H12X HAL2           0.09         1.008       0
   26904 MEMB 112  POPC H12Y HAL2           0.09         1.008       0
   26905 MEMB 112  POPC C313 CTL2          -0.18        12.011       0
   26906 MEMB 112  POPC H13X HAL2           0.09         1.008       0
   26907 MEMB 112  POPC H13Y HAL2           0.09         1.008       0
   26908 MEMB 112  POPC C314 CTL2          -0.18        12.011       0
   26909 MEMB 112  POPC H14X HAL2           0.09         1.008       0
   26910 MEMB 112  POPC H14Y HAL2           0.09         1.008       0
   26911 MEMB 112  POPC C315 CTL2          -0.18        12.011       0
   26912 MEMB 112  POPC H15X HAL2           0.09         1.008       0
   26913 MEMB 112  POPC H15Y HAL2           0.09         1.008       0
   26914 MEMB 112  POPC C316 CTL3          -0.27        12.011       0
   26915 MEMB 112  POPC H16X HAL3           0.09         1.008       0
   26916 MEMB 112  POPC H16Y HAL3           0.09         1.008       0
   26917 MEMB 112  POPC H16Z HAL3           0.09         1.008       0
   26918 MEMB 113  POPS N    NH3L           -0.3        14.007       0
   26919 MEMB 113  POPS HN1  HCL            0.33         1.008       0
   26920 MEMB 113  POPS HN2  HCL            0.33         1.008       0
   26921 MEMB 113  POPS HN3  HCL            0.33         1.008       0
   26922 MEMB 113  POPS C12  CTL1           0.21        12.011       0
   26923 MEMB 113  POPS H12A HBL             0.1         1.008       0
   26924 MEMB 113  POPS C13  CCL            0.34        12.011       0
   26925 MEMB 113  POPS O13A OCL           -0.67       15.9994       0
   26926 MEMB 113  POPS O13B OCL           -0.67       15.9994       0
   26927 MEMB 113  POPS C11  CTL2          -0.08        12.011       0
   26928 MEMB 113  POPS H11A HAL2           0.09         1.008       0
   26929 MEMB 113  POPS H11B HAL2           0.09         1.008       0
   26930 MEMB 113  POPS P    PL              1.5        30.974       0
   26931 MEMB 113  POPS O13  O2L           -0.78       15.9994       0
   26932 MEMB 113  POPS O14  O2L           -0.78       15.9994       0
   26933 MEMB 113  POPS O12  OSLP          -0.57       15.9994       0
   26934 MEMB 113  POPS O11  OSLP          -0.57       15.9994       0
   26935 MEMB 113  POPS C1   CTL2          -0.08        12.011       0
   26936 MEMB 113  POPS HA   HAL2           0.09         1.008       0
   26937 MEMB 113  POPS HB   HAL2           0.09         1.008       0
   26938 MEMB 113  POPS C2   CTL1           0.17        12.011       0
   26939 MEMB 113  POPS HS   HAL1           0.09         1.008       0
   26940 MEMB 113  POPS O21  OSL           -0.49       15.9994       0
   26941 MEMB 113  POPS C21  CL              0.9        12.011       0
   26942 MEMB 113  POPS O22  OBL           -0.63       15.9994       0
   26943 MEMB 113  POPS C22  CTL2          -0.22        12.011       0
   26944 MEMB 113  POPS H2R  HAL2           0.09         1.008       0
   26945 MEMB 113  POPS H2S  HAL2           0.09         1.008       0
   26946 MEMB 113  POPS C3   CTL2           0.08        12.011       0
   26947 MEMB 113  POPS HX   HAL2           0.09         1.008       0
   26948 MEMB 113  POPS HY   HAL2           0.09         1.008       0
   26949 MEMB 113  POPS O31  OSL           -0.49       15.9994       0
   26950 MEMB 113  POPS C31  CL              0.9        12.011       0
   26951 MEMB 113  POPS O32  OBL           -0.63       15.9994       0
   26952 MEMB 113  POPS C32  CTL2          -0.22        12.011       0
   26953 MEMB 113  POPS H2X  HAL2           0.09         1.008       0
   26954 MEMB 113  POPS H2Y  HAL2           0.09         1.008       0
   26955 MEMB 113  POPS C23  CTL2          -0.18        12.011       0
   26956 MEMB 113  POPS H3R  HAL2           0.09         1.008       0
   26957 MEMB 113  POPS H3S  HAL2           0.09         1.008       0
   26958 MEMB 113  POPS C24  CTL2          -0.18        12.011       0
   26959 MEMB 113  POPS H4R  HAL2           0.09         1.008       0
   26960 MEMB 113  POPS H4S  HAL2           0.09         1.008       0
   26961 MEMB 113  POPS C25  CTL2          -0.18        12.011       0
   26962 MEMB 113  POPS H5R  HAL2           0.09         1.008       0
   26963 MEMB 113  POPS H5S  HAL2           0.09         1.008       0
   26964 MEMB 113  POPS C26  CTL2          -0.18        12.011       0
   26965 MEMB 113  POPS H6R  HAL2           0.09         1.008       0
   26966 MEMB 113  POPS H6S  HAL2           0.09         1.008       0
   26967 MEMB 113  POPS C27  CTL2          -0.18        12.011       0
   26968 MEMB 113  POPS H7R  HAL2           0.09         1.008       0
   26969 MEMB 113  POPS H7S  HAL2           0.09         1.008       0
   26970 MEMB 113  POPS C28  CTL2          -0.18        12.011       0
   26971 MEMB 113  POPS H8R  HAL2           0.09         1.008       0
   26972 MEMB 113  POPS H8S  HAL2           0.09         1.008       0
   26973 MEMB 113  POPS C29  CEL1          -0.15        12.011       0
   26974 MEMB 113  POPS H91  HEL1           0.15         1.008       0
   26975 MEMB 113  POPS C210 CEL1          -0.15        12.011       0
   26976 MEMB 113  POPS H101 HEL1           0.15         1.008       0
   26977 MEMB 113  POPS C211 CTL2          -0.18        12.011       0
   26978 MEMB 113  POPS H11R HAL2           0.09         1.008       0
   26979 MEMB 113  POPS H11S HAL2           0.09         1.008       0
   26980 MEMB 113  POPS C212 CTL2          -0.18        12.011       0
   26981 MEMB 113  POPS H12R HAL2           0.09         1.008       0
   26982 MEMB 113  POPS H12S HAL2           0.09         1.008       0
   26983 MEMB 113  POPS C213 CTL2          -0.18        12.011       0
   26984 MEMB 113  POPS H13R HAL2           0.09         1.008       0
   26985 MEMB 113  POPS H13S HAL2           0.09         1.008       0
   26986 MEMB 113  POPS C214 CTL2          -0.18        12.011       0
   26987 MEMB 113  POPS H14R HAL2           0.09         1.008       0
   26988 MEMB 113  POPS H14S HAL2           0.09         1.008       0
   26989 MEMB 113  POPS C215 CTL2          -0.18        12.011       0
   26990 MEMB 113  POPS H15R HAL2           0.09         1.008       0
   26991 MEMB 113  POPS H15S HAL2           0.09         1.008       0
   26992 MEMB 113  POPS C216 CTL2          -0.18        12.011       0
   26993 MEMB 113  POPS H16R HAL2           0.09         1.008       0
   26994 MEMB 113  POPS H16S HAL2           0.09         1.008       0
   26995 MEMB 113  POPS C217 CTL2          -0.18        12.011       0
   26996 MEMB 113  POPS H17R HAL2           0.09         1.008       0
   26997 MEMB 113  POPS H17S HAL2           0.09         1.008       0
   26998 MEMB 113  POPS C218 CTL3          -0.27        12.011       0
   26999 MEMB 113  POPS H18R HAL3           0.09         1.008       0
   27000 MEMB 113  POPS H18S HAL3           0.09         1.008       0
   27001 MEMB 113  POPS H18T HAL3           0.09         1.008       0
   27002 MEMB 113  POPS C33  CTL2          -0.18        12.011       0
   27003 MEMB 113  POPS H3X  HAL2           0.09         1.008       0
   27004 MEMB 113  POPS H3Y  HAL2           0.09         1.008       0
   27005 MEMB 113  POPS C34  CTL2          -0.18        12.011       0
   27006 MEMB 113  POPS H4X  HAL2           0.09         1.008       0
   27007 MEMB 113  POPS H4Y  HAL2           0.09         1.008       0
   27008 MEMB 113  POPS C35  CTL2          -0.18        12.011       0
   27009 MEMB 113  POPS H5X  HAL2           0.09         1.008       0
   27010 MEMB 113  POPS H5Y  HAL2           0.09         1.008       0
   27011 MEMB 113  POPS C36  CTL2          -0.18        12.011       0
   27012 MEMB 113  POPS H6X  HAL2           0.09         1.008       0
   27013 MEMB 113  POPS H6Y  HAL2           0.09         1.008       0
   27014 MEMB 113  POPS C37  CTL2          -0.18        12.011       0
   27015 MEMB 113  POPS H7X  HAL2           0.09         1.008       0
   27016 MEMB 113  POPS H7Y  HAL2           0.09         1.008       0
   27017 MEMB 113  POPS C38  CTL2          -0.18        12.011       0
   27018 MEMB 113  POPS H8X  HAL2           0.09         1.008       0
   27019 MEMB 113  POPS H8Y  HAL2           0.09         1.008       0
   27020 MEMB 113  POPS C39  CTL2          -0.18        12.011       0
   27021 MEMB 113  POPS H9X  HAL2           0.09         1.008       0
   27022 MEMB 113  POPS H9Y  HAL2           0.09         1.008       0
   27023 MEMB 113  POPS C310 CTL2          -0.18        12.011       0
   27024 MEMB 113  POPS H10X HAL2           0.09         1.008       0
   27025 MEMB 113  POPS H10Y HAL2           0.09         1.008       0
   27026 MEMB 113  POPS C311 CTL2          -0.18        12.011       0
   27027 MEMB 113  POPS H11X HAL2           0.09         1.008       0
   27028 MEMB 113  POPS H11Y HAL2           0.09         1.008       0
   27029 MEMB 113  POPS C312 CTL2          -0.18        12.011       0
   27030 MEMB 113  POPS H12X HAL2           0.09         1.008       0
   27031 MEMB 113  POPS H12Y HAL2           0.09         1.008       0
   27032 MEMB 113  POPS C313 CTL2          -0.18        12.011       0
   27033 MEMB 113  POPS H13X HAL2           0.09         1.008       0
   27034 MEMB 113  POPS H13Y HAL2           0.09         1.008       0
   27035 MEMB 113  POPS C314 CTL2          -0.18        12.011       0
   27036 MEMB 113  POPS H14X HAL2           0.09         1.008       0
   27037 MEMB 113  POPS H14Y HAL2           0.09         1.008       0
   27038 MEMB 113  POPS C315 CTL2          -0.18        12.011       0
   27039 MEMB 113  POPS H15X HAL2           0.09         1.008       0
   27040 MEMB 113  POPS H15Y HAL2           0.09         1.008       0
   27041 MEMB 113  POPS C316 CTL3          -0.27        12.011       0
   27042 MEMB 113  POPS H16X HAL3           0.09         1.008       0
   27043 MEMB 113  POPS H16Y HAL3           0.09         1.008       0
   27044 MEMB 113  POPS H16Z HAL3           0.09         1.008       0

   22223 !NBOND: bonds
       1       2       1       3       1       4       1       5
       5       7       5       6       7       8       7       9
       9      10       9      11       9      22      11      12
      11      13      11      14      14      15      14      16
      14      17      17      18      17      19      19      20
      19      21      22      24      22      23      24      25
      24      26      26      27      26      28      26      32
      28      29      28      30      28      31      32      34
      32      33      34      38      34      35      35      36
      35      37      35      43      38      40      38      39
      38      46      40      43      40      41      40      42
      43      44      43      45      46      48      46      47
      48      49      48      50      50      51      50      52
      50      56      52      53      52      54      52      55
      56      58      56      57      58      59      58      60
      60      61      60      62      60      77      62      63
      62      64      62      65      65      66      65      73
      66      67      66      68      68      69      68      70
      70      75      70      71      71      72      73      74
      73      75      75      76      77      79      77      78
      79      80      79      81      81      82      81      83
      81      99      83      84      83      85      83      86
      86      87      86      88      86      89      89      90
      89      91      89      92      92      93      92      94
      92      95      95      96      95      97      95      98
      99     101      99     100     101     102     101     103
     103     104     103     105     103     121     105     106
     105     107     105     108     108     109     108     110
     108     111     111     112     111     113     111     114
     114     115     114     116     114     117     117     118
     117     119     117     120     121     123     121     122
     123     124     123     125     125     126     125     127
     125     131     127     128     127     129     127     130
     131     133     131     132     133     134     133     135
     135     136     135     137     135     141     137     138
     137     139     137     140     141     143     141     142
     143     144     143     145     145     146     145     147
     145     163     147     148     147     149     147     150
     150     151     150     152     150     153     153     154
     153     155     153     156     156     157     156     158
     156     159     159     160     159     161     159     162
     163     165     163     164     165     166     165     167
     167     168     167     169     167     185     169     170
     169     171     169     172     172     173     172     174
     172     175     175     176     175     177     175     178
     178     179     178     180     178     181     181     182
     181     183     181     184     185     187     185     186
     187     188     187     189     189     190     189     191
     189     204     191     192     191     193     191     194
     194     195     194     196     194     200     196     197
     196     198     196     199     200     201     200     202
     200     203     204     206     204     205     206     207
     206     208     208     209     208     210     208     214
     210     211     210     212     210     213     214     216
     214     215     216     217     216     218     218     219
     218     220     218     229     220     221     220     222
     220     223     223     224     223     225     223     226
     226     227     226     228     229     231     229     230
     231     232     231     233     233     234     233     235
     233     240     235     236     235     237     235     238
     238     239     240     242     240     241     243     244
     243     245     246     247     246     248     249     250
     249     251     252     253     252     254     255     256
     255     257     258     259     258     260     261     262
     261     263     264     265     264     266     267     268
     267     269     270     271     270     272     273     274
     273     275     276     277     276     278     279     280
     279     281     282     283     282     284     285     286
     285     287     288     289     288     290     291     292
     291     293     294     295     294     296     297     298
     297     299     300     301     300     302     303     304
     303     305     306     307     306     308     309     310
     309     311     312     313     312     314     315     316
     315     317     318     319     318     320     321     322
     321     323     324     325     324     326     327     328
     327     329     330     331     330     332     333     334
     333     335     336     337     336     338     339     340
     339     341     342     343     342     344     345     346
     345     347     348     349     348     350     351     352
     351     353     354     355     354     356     357     358
     357     359     360     361     360     362     363     364
     363     365     366     367     366     368     369     370
     369     371     372     373     372     374     375     376
     375     377     378     379     378     380     381     382
     381     383     384     385     384     386     387     388
     387     389     390     391     390     392     393     394
     393     395     396     397     396     398     399     400
     399     401     402     403     402     404     405     406
     405     407     408     409     408     410     411     412
     411     413     414     415     414     416     417     418
     417     419     420     421     420     422     423     424
     423     425     426     427     426     428     429     430
     429     431     432     433     432     434     435     436
     435     437     438     439     438     440     441     442
     441     443     444     445     444     446     447     448
     447     449     450     451     450     452     453     454
     453     455     456     457     456     458     459     460
     459     461     462     463     462     464     465     466
     465     467     468     469     468     470     471     472
     471     473     474     475     474     476     477     478
     477     479     480     481     480     482     483     484
     483     485     486     487     486     488     489     490
     489     491     492     493     492     494     495     496
     495     497     498     499     498     500     501     502
     501     503     504     505     504     506     507     508
     507     509     510     511     510     512     513     514
     513     515     516     517     516     518     519     520
     519     521     522     523     522     524     525     526
     525     527     528     529     528     530     531     532
     531     533     534     535     534     536     537     538
     537     539     540     541     540     542     543     544
     543     545     546     547     546     548     549     550
     549     551     552     553     552     554     555     556
     555     557     558     559     558     560     561     562
     561     563     564     565     564     566     567     568
     567     569     570     571     570     572     573     574
     573     575     576     577     576     578     579     580
     579     581     582     583     582     584     585     586
     585     587     588     589     588     590     591     592
     591     593     594     595     594     596     597     598
     597     599     600     601     600     602     603     604
     603     605     606     607     606     608     609     610
     609     611     612     613     612     614     615     616
     615     617     618     619     618     620     621     622
     621     623     624     625     624     626     627     628
     627     629     630     631     630     632     633     634
     633     635     636     637     636     638     639     640
     639     641     642     643     642     644     645     646
     645     647     648     649     648     650     651     652
     651     653     654     655     654     656     657     658
     657     659     660     661     660     662     663     664
     663     665     666     667     666     668     669     670
     669     671     672     673     672     674     675     676
     675     677     678     679     678     680     681     682
     681     683     684     685     684     686     687     688
     687     689     690     691     690     692     693     694
     693     695     696     697     696     698     699     700
     699     701     702     703     702     704     705     706
     705     707     708     709     708     710     711     712
     711     713     714     715     714     716     717     718
     717     719     720     721     720     722     723     724
     723     725     726     727     726     728     729     730
     729     731     732     733     732     734     735     736
     735     737     738     739     738     740     741     742
     741     743     744     745     744     746     747     748
     747     749     750     751     750     752     753     754
     753     755     756     757     756     758     759     760
     759     761     762     763     762     764     765     766
     765     767     768     769     768     770     771     772
     771     773     774     775     774     776     777     778
     777     779     780     781     780     782     783     784
     783     785     786     787     786     788     789     790
     789     791     792     793     792     794     795     796
     795     797     798     799     798     800     801     802
     801     803     804     805     804     806     807     808
     807     809     810     811     810     812     813     814
     813     815     816     817     816     818     819     820
     819     821     822     823     822     824     825     826
     825     827     828     829     828     830     831     832
     831     833     834     835     834     836     837     838
     837     839     840     841     840     842     843     844
     843     845     846     847     846     848     849     850
     849     851     852     853     852     854     855     856
     855     857     858     859     858     860     861     862
     861     863     864     865     864     866     867     868
     867     869     870     871     870     872     873     874
     873     875     876     877     876     878     879     880
     879     881     882     883     882     884     885     886
     885     887     888     889     888     890     891     892
     891     893     894     895     894     896     897     898
     897     899     900     901     900     902     903     904
     903     905     906     907     906     908     909     910
     909     911     912     913     912     914     915     916
     915     917     918     919     918     920     921     922
     921     923     924     925     924     926     927     928
     927     929     930     931     930     932     933     934
     933     935     936     937     936     938     939     940
     939     941     942     943     942     944     945     946
     945     947     948     949     948     950     951     952
     951     953     954     955     954     956     957     958
     957     959     960     961     960     962     963     964
     963     965     966     967     966     968     969     970
     969     971     972     973     972     974     975     976
     975     977     978     979     978     980     981     982
     981     983     984     985     984     986     987     988
     987     989     990     991     990     992     993     994
     993     995     996     997     996     998     999    1000
     999    1001    1002    1003    1002    1004    1005    1006
    1005    1007    1008    1009    1008    1010    1011    1012
    1011    1013    1014    1015    1014    1016    1017    1018
    1017    1019    1020    1021    1020    1022    1023    1024
    1023    1025    1026    1027    1026    1028    1029    1030
    1029    1031    1032    1033    1032    1034    1035    1036
    1035    1037    1038    1039    1038    1040    1041    1042
    1041    1043    1044    1045    1044    1046    1047    1048
    1047    1049    1050    1051    1050    1052    1053    1054
    1053    1055    1056    1057    1056    1058    1059    1060
    1059    1061    1062    1063    1062    1064    1065    1066
    1065    1067    1068    1069    1068    1070    1071    1072
    1071    1073    1074    1075    1074    1076    1077    1078
    1077    1079    1080    1081    1080    1082    1083    1084
    1083    1085    1086    1087    1086    1088    1089    1090
    1089    1091    1092    1093    1092    1094    1095    1096
    1095    1097    1098    1099    1098    1100    1101    1102
    1101    1103    1104    1105    1104    1106    1107    1108
    1107    1109    1110    1111    1110    1112    1113    1114
    1113    1115    1116    1117    1116    1118    1119    1120
    1119    1121    1122    1123    1122    1124    1125    1126
    1125    1127    1128    1129    1128    1130    1131    1132
    1131    1133    1134    1135    1134    1136    1137    1138
    1137    1139    1140    1141    1140    1142    1143    1144
    1143    1145    1146    1147    1146    1148    1149    1150
    1149    1151    1152    1153    1152    1154    1155    1156
    1155    1157    1158    1159    1158    1160    1161    1162
    1161    1163    1164    1165    1164    1166    1167    1168
    1167    1169    1170    1171    1170    1172    1173    1174
    1173    1175    1176    1177    1176    1178    1179    1180
    1179    1181    1182    1183    1182    1184    1185    1186
    1185    1187    1188    1189    1188    1190    1191    1192
    1191    1193    1194    1195    1194    1196    1197    1198
    1197    1199    1200    1201    1200    1202    1203    1204
    1203    1205    1206    1207    1206    1208    1209    1210
    1209    1211    1212    1213    1212    1214    1215    1216
    1215    1217    1218    1219    1218    1220    1221    1222
    1221    1223    1224    1225    1224    1226    1227    1228
    1227    1229    1230    1231    1230    1232    1233    1234
    1233    1235    1236    1237    1236    1238    1239    1240
    1239    1241    1242    1243    1242    1244    1245    1246
    1245    1247    1248    1249    1248    1250    1251    1252
    1251    1253    1254    1255    1254    1256    1257    1258
    1257    1259    1260    1261    1260    1262    1263    1264
    1263    1265    1266    1267    1266    1268    1269    1270
    1269    1271    1272    1273    1272    1274    1275    1276
    1275    1277    1278    1279    1278    1280    1281    1282
    1281    1283    1284    1285    1284    1286    1287    1288
    1287    1289    1290    1291    1290    1292    1293    1294
    1293    1295    1296    1297    1296    1298    1299    1300
    1299    1301    1302    1303    1302    1304    1305    1306
    1305    1307    1308    1309    1308    1310    1311    1312
    1311    1313    1314    1315    1314    1316    1317    1318
    1317    1319    1320    1321    1320    1322    1323    1324
    1323    1325    1326    1327    1326    1328    1329    1330
    1329    1331    1332    1333    1332    1334    1335    1336
    1335    1337    1338    1339    1338    1340    1341    1342
    1341    1343    1344    1345    1344    1346    1347    1348
    1347    1349    1350    1351    1350    1352    1353    1354
    1353    1355    1356    1357    1356    1358    1359    1360
    1359    1361    1362    1363    1362    1364    1365    1366
    1365    1367    1368    1369    1368    1370    1371    1372
    1371    1373    1374    1375    1374    1376    1377    1378
    1377    1379    1380    1381    1380    1382    1383    1384
    1383    1385    1386    1387    1386    1388    1389    1390
    1389    1391    1392    1393    1392    1394    1395    1396
    1395    1397    1398    1399    1398    1400    1401    1402
    1401    1403    1404    1405    1404    1406    1407    1408
    1407    1409    1410    1411    1410    1412    1413    1414
    1413    1415    1416    1417    1416    1418    1419    1420
    1419    1421    1422    1423    1422    1424    1425    1426
    1425    1427    1428    1429    1428    1430    1431    1432
    1431    1433    1434    1435    1434    1436    1437    1438
    1437    1439    1440    1441    1440    1442    1443    1444
    1443    1445    1446    1447    1446    1448    1449    1450
    1449    1451    1452    1453    1452    1454    1455    1456
    1455    1457    1458    1459    1458    1460    1461    1462
    1461    1463    1464    1465    1464    1466    1467    1468
    1467    1469    1470    1471    1470    1472    1473    1474
    1473    1475    1476    1477    1476    1478    1479    1480
    1479    1481    1482    1483    1482    1484    1485    1486
    1485    1487    1488    1489    1488    1490    1491    1492
    1491    1493    1494    1495    1494    1496    1497    1498
    1497    1499    1500    1501    1500    1502    1503    1504
    1503    1505    1506    1507    1506    1508    1509    1510
    1509    1511    1512    1513    1512    1514    1515    1516
    1515    1517    1518    1519    1518    1520    1521    1522
    1521    1523    1524    1525    1524    1526    1527    1528
    1527    1529    1530    1531    1530    1532    1533    1534
    1533    1535    1536    1537    1536    1538    1539    1540
    1539    1541    1542    1543    1542    1544    1545    1546
    1545    1547    1548    1549    1548    1550    1551    1552
    1551    1553    1554    1555    1554    1556    1557    1558
    1557    1559    1560    1561    1560    1562    1563    1564
    1563    1565    1566    1567    1566    1568    1569    1570
    1569    1571    1572    1573    1572    1574    1575    1576
    1575    1577    1578    1579    1578    1580    1581    1582
    1581    1583    1584    1585    1584    1586    1587    1588
    1587    1589    1590    1591    1590    1592    1593    1594
    1593    1595    1596    1597    1596    1598    1599    1600
    1599    1601    1602    1603    1602    1604    1605    1606
    1605    1607    1608    1609    1608    1610    1611    1612
    1611    1613    1614    1615    1614    1616    1617    1618
    1617    1619    1620    1621    1620    1622    1623    1624
    1623    1625    1626    1627    1626    1628    1629    1630
    1629    1631    1632    1633    1632    1634    1635    1636
    1635    1637    1638    1639    1638    1640    1641    1642
    1641    1643    1644    1645    1644    1646    1647    1648
    1647    1649    1650    1651    1650    1652    1653    1654
    1653    1655    1656    1657    1656    1658    1659    1660
    1659    1661    1662    1663    1662    1664    1665    1666
    1665    1667    1668    1669    1668    1670    1671    1672
    1671    1673    1674    1675    1674    1676    1677    1678
    1677    1679    1680    1681    1680    1682    1683    1684
    1683    1685    1686    1687    1686    1688    1689    1690
    1689    1691    1692    1693    1692    1694    1695    1696
    1695    1697    1698    1699    1698    1700    1701    1702
    1701    1703    1704    1705    1704    1706    1707    1708
    1707    1709    1710    1711    1710    1712    1713    1714
    1713    1715    1716    1717    1716    1718    1719    1720
    1719    1721    1722    1723    1722    1724    1725    1726
    1725    1727    1728    1729    1728    1730    1731    1732
    1731    1733    1734    1735    1734    1736    1737    1738
    1737    1739    1740    1741    1740    1742    1743    1744
    1743    1745    1746    1747    1746    1748    1749    1750
    1749    1751    1752    1753    1752    1754    1755    1756
    1755    1757    1758    1759    1758    1760    1761    1762
    1761    1763    1764    1765    1764    1766    1767    1768
    1767    1769    1770    1771    1770    1772    1773    1774
    1773    1775    1776    1777    1776    1778    1779    1780
    1779    1781    1782    1783    1782    1784    1785    1786
    1785    1787    1788    1789    1788    1790    1791    1792
    1791    1793    1794    1795    1794    1796    1797    1798
    1797    1799    1800    1801    1800    1802    1803    1804
    1803    1805    1806    1807    1806    1808    1809    1810
    1809    1811    1812    1813    1812    1814    1815    1816
    1815    1817    1818    1819    1818    1820    1821    1822
    1821    1823    1824    1825    1824    1826    1827    1828
    1827    1829    1830    1831    1830    1832    1833    1834
    1833    1835    1836    1837    1836    1838    1839    1840
    1839    1841    1842    1843    1842    1844    1845    1846
    1845    1847    1848    1849    1848    1850    1851    1852
    1851    1853    1854    1855    1854    1856    1857    1858
    1857    1859    1860    1861    1860    1862    1863    1864
    1863    1865    1866    1867    1866    1868    1869    1870
    1869    1871    1872    1873    1872    1874    1875    1876
    1875    1877    1878    1879    1878    1880    1881    1882
    1881    1883    1884    1885    1884    1886    1887    1888
    1887    1889    1890    1891    1890    1892    1893    1894
    1893    1895    1896    1897    1896    1898    1899    1900
    1899    1901    1902    1903    1902    1904    1905    1906
    1905    1907    1908    1909    1908    1910    1911    1912
    1911    1913    1914    1915    1914    1916    1917    1918
    1917    1919    1920    1921    1920    1922    1923    1924
    1923    1925    1926    1927    1926    1928    1929    1930
    1929    1931    1932    1933    1932    1934    1935    1936
    1935    1937    1938    1939    1938    1940    1941    1942
    1941    1943    1944    1945    1944    1946    1947    1948
    1947    1949    1950    1951    1950    1952    1953    1954
    1953    1955    1956    1957    1956    1958    1959    1960
    1959    1961    1962    1963    1962    1964    1965    1966
    1965    1967    1968    1969    1968    1970    1971    1972
    1971    1973    1974    1975    1974    1976    1977    1978
    1977    1979    1980    1981    1980    1982    1983    1984
    1983    1985    1986    1987    1986    1988    1989    1990
    1989    1991    1992    1993    1992    1994    1995    1996
    1995    1997    1998    1999    1998    2000    2001    2002
    2001    2003    2004    2005    2004    2006    2007    2008
    2007    2009    2010    2011    2010    2012    2013    2014
    2013    2015    2016    2017    2016    2018    2019    2020
    2019    2021    2022    2023    2022    2024    2025    2026
    2025    2027    2028    2029    2028    2030    2031    2032
    2031    2033    2034    2035    2034    2036    2037    2038
    2037    2039    2040    2041    2040    2042    2043    2044
    2043    2045    2046    2047    2046    2048    2049    2050
    2049    2051    2052    2053    2052    2054    2055    2056
    2055    2057    2058    2059    2058    2060    2061    2062
    2061    2063    2064    2065    2064    2066    2067    2068
    2067    2069    2070    2071    2070    2072    2073    2074
    2073    2075    2076    2077    2076    2078    2079    2080
    2079    2081    2082    2083    2082    2084    2085    2086
    2085    2087    2088    2089    2088    2090    2091    2092
    2091    2093    2094    2095    2094    2096    2097    2098
    2097    2099    2100    2101    2100    2102    2103    2104
    2103    2105    2106    2107    2106    2108    2109    2110
    2109    2111    2112    2113    2112    2114    2115    2116
    2115    2117    2118    2119    2118    2120    2121    2122
    2121    2123    2124    2125    2124    2126    2127    2128
    2127    2129    2130    2131    2130    2132    2133    2134
    2133    2135    2136    2137    2136    2138    2139    2140
    2139    2141    2142    2143    2142    2144    2145    2146
    2145    2147    2148    2149    2148    2150    2151    2152
    2151    2153    2154    2155    2154    2156    2157    2158
    2157    2159    2160    2161    2160    2162    2163    2164
    2163    2165    2166    2167    2166    2168    2169    2170
    2169    2171    2172    2173    2172    2174    2175    2176
    2175    2177    2178    2179    2178    2180    2181    2182
    2181    2183    2184    2185    2184    2186    2187    2188
    2187    2189    2190    2191    2190    2192    2193    2194
    2193    2195    2196    2197    2196    2198    2199    2200
    2199    2201    2202    2203    2202    2204    2205    2206
    2205    2207    2208    2209    2208    2210    2211    2212
    2211    2213    2214    2215    2214    2216    2217    2218
    2217    2219    2220    2221    2220    2222    2223    2224
    2223    2225    2226    2227    2226    2228    2229    2230
    2229    2231    2232    2233    2232    2234    2235    2236
    2235    2237    2238    2239    2238    2240    2241    2242
    2241    2243    2244    2245    2244    2246    2247    2248
    2247    2249    2250    2251    2250    2252    2253    2254
    2253    2255    2256    2257    2256    2258    2259    2260
    2259    2261    2262    2263    2262    2264    2265    2266
    2265    2267    2268    2269    2268    2270    2271    2272
    2271    2273    2274    2275    2274    2276    2277    2278
    2277    2279    2280    2281    2280    2282    2283    2284
    2283    2285    2286    2287    2286    2288    2289    2290
    2289    2291    2292    2293    2292    2294    2295    2296
    2295    2297    2298    2299    2298    2300    2301    2302
    2301    2303    2304    2305    2304    2306    2307    2308
    2307    2309    2310    2311    2310    2312    2313    2314
    2313    2315    2316    2317    2316    2318    2319    2320
    2319    2321    2322    2323    2322    2324    2325    2326
    2325    2327    2328    2329    2328    2330    2331    2332
    2331    2333    2334    2335    2334    2336    2337    2338
    2337    2339    2340    2341    2340    2342    2343    2344
    2343    2345    2346    2347    2346    2348    2349    2350
    2349    2351    2352    2353    2352    2354    2355    2356
    2355    2357    2358    2359    2358    2360    2361    2362
    2361    2363    2364    2365    2364    2366    2367    2368
    2367    2369    2370    2371    2370    2372    2373    2374
    2373    2375    2376    2377    2376    2378    2379    2380
    2379    2381    2382    2383    2382    2384    2385    2386
    2385    2387    2388    2389    2388    2390    2391    2392
    2391    2393    2394    2395    2394    2396    2397    2398
    2397    2399    2400    2401    2400    2402    2403    2404
    2403    2405    2406    2407    2406    2408    2409    2410
    2409    2411    2412    2413    2412    2414    2415    2416
    2415    2417    2418    2419    2418    2420    2421    2422
    2421    2423    2424    2425    2424    2426    2427    2428
    2427    2429    2430    2431    2430    2432    2433    2434
    2433    2435    2436    2437    2436    2438    2439    2440
    2439    2441    2442    2443    2442    2444    2445    2446
    2445    2447    2448    2449    2448    2450    2451    2452
    2451    2453    2454    2455    2454    2456    2457    2458
    2457    2459    2460    2461    2460    2462    2463    2464
    2463    2465    2466    2467    2466    2468    2469    2470
    2469    2471    2472    2473    2472    2474    2475    2476
    2475    2477    2478    2479    2478    2480    2481    2482
    2481    2483    2484    2485    2484    2486    2487    2488
    2487    2489    2490    2491    2490    2492    2493    2494
    2493    2495    2496    2497    2496    2498    2499    2500
    2499    2501    2502    2503    2502    2504    2505    2506
    2505    2507    2508    2509    2508    2510    2511    2512
    2511    2513    2514    2515    2514    2516    2517    2518
    2517    2519    2520    2521    2520    2522    2523    2524
    2523    2525    2526    2527    2526    2528    2529    2530
    2529    2531    2532    2533    2532    2534    2535    2536
    2535    2537    2538    2539    2538    2540    2541    2542
    2541    2543    2544    2545    2544    2546    2547    2548
    2547    2549    2550    2551    2550    2552    2553    2554
    2553    2555    2556    2557    2556    2558    2559    2560
    2559    2561    2562    2563    2562    2564    2565    2566
    2565    2567    2568    2569    2568    2570    2571    2572
    2571    2573    2574    2575    2574    2576    2577    2578
    2577    2579    2580    2581    2580    2582    2583    2584
    2583    2585    2586    2587    2586    2588    2589    2590
    2589    2591    2592    2593    2592    2594    2595    2596
    2595    2597    2598    2599    2598    2600    2601    2602
    2601    2603    2604    2605    2604    2606    2607    2608
    2607    2609    2610    2611    2610    2612    2613    2614
    2613    2615    2616    2617    2616    2618    2619    2620
    2619    2621    2622    2623    2622    2624    2625    2626
    2625    2627    2628    2629    2628    2630    2631    2632
    2631    2633    2634    2635    2634    2636    2637    2638
    2637    2639    2640    2641    2640    2642    2643    2644
    2643    2645    2646    2647    2646    2648    2649    2650
    2649    2651    2652    2653    2652    2654    2655    2656
    2655    2657    2658    2659    2658    2660    2661    2662
    2661    2663    2664    2665    2664    2666    2667    2668
    2667    2669    2670    2671    2670    2672    2673    2674
    2673    2675    2676    2677    2676    2678    2679    2680
    2679    2681    2682    2683    2682    2684    2685    2686
    2685    2687    2688    2689    2688    2690    2691    2692
    2691    2693    2694    2695    2694    2696    2697    2698
    2697    2699    2700    2701    2700    2702    2703    2704
    2703    2705    2706    2707    2706    2708    2709    2710
    2709    2711    2712    2713    2712    2714    2715    2716
    2715    2717    2718    2719    2718    2720    2721    2722
    2721    2723    2724    2725    2724    2726    2727    2728
    2727    2729    2730    2731    2730    2732    2733    2734
    2733    2735    2736    2737    2736    2738    2739    2740
    2739    2741    2742    2743    2742    2744    2745    2746
    2745    2747    2748    2749    2748    2750    2751    2752
    2751    2753    2754    2755    2754    2756    2757    2758
    2757    2759    2760    2761    2760    2762    2763    2764
    2763    2765    2766    2767    2766    2768    2769    2770
    2769    2771    2772    2773    2772    2774    2775    2776
    2775    2777    2778    2779    2778    2780    2781    2782
    2781    2783    2784    2785    2784    2786    2787    2788
    2787    2789    2790    2791    2790    2792    2793    2794
    2793    2795    2796    2797    2796    2798    2799    2800
    2799    2801    2802    2803    2802    2804    2805    2806
    2805    2807    2808    2809    2808    2810    2811    2812
    2811    2813    2814    2815    2814    2816    2817    2818
    2817    2819    2820    2821    2820    2822    2823    2824
    2823    2825    2826    2827    2826    2828    2829    2830
    2829    2831    2832    2833    2832    2834    2835    2836
    2835    2837    2838    2839    2838    2840    2841    2842
    2841    2843    2844    2845    2844    2846    2847    2848
    2847    2849    2850    2851    2850    2852    2853    2854
    2853    2855    2856    2857    2856    2858    2859    2860
    2859    2861    2862    2863    2862    2864    2865    2866
    2865    2867    2868    2869    2868    2870    2871    2872
    2871    2873    2874    2875    2874    2876    2877    2878
    2877    2879    2880    2881    2880    2882    2883    2884
    2883    2885    2886    2887    2886    2888    2889    2890
    2889    2891    2892    2893    2892    2894    2895    2896
    2895    2897    2898    2899    2898    2900    2901    2902
    2901    2903    2904    2905    2904    2906    2907    2908
    2907    2909    2910    2911    2910    2912    2913    2914
    2913    2915    2916    2917    2916    2918    2919    2920
    2919    2921    2922    2923    2922    2924    2925    2926
    2925    2927    2928    2929    2928    2930    2931    2932
    2931    2933    2934    2935    2934    2936    2937    2938
    2937    2939    2940    2941    2940    2942    2943    2944
    2943    2945    2946    2947    2946    2948    2949    2950
    2949    2951    2952    2953    2952    2954    2955    2956
    2955    2957    2958    2959    2958    2960    2961    2962
    2961    2963    2964    2965    2964    2966    2967    2968
    2967    2969    2970    2971    2970    2972    2973    2974
    2973    2975    2976    2977    2976    2978    2979    2980
    2979    2981    2982    2983    2982    2984    2985    2986
    2985    2987    2988    2989    2988    2990    2991    2992
    2991    2993    2994    2995    2994    2996    2997    2998
    2997    2999    3000    3001    3000    3002    3003    3004
    3003    3005    3006    3007    3006    3008    3009    3010
    3009    3011    3012    3013    3012    3014    3015    3016
    3015    3017    3018    3019    3018    3020    3021    3022
    3021    3023    3024    3025    3024    3026    3027    3028
    3027    3029    3030    3031    3030    3032    3033    3034
    3033    3035    3036    3037    3036    3038    3039    3040
    3039    3041    3042    3043    3042    3044    3045    3046
    3045    3047    3048    3049    3048    3050    3051    3052
    3051    3053    3054    3055    3054    3056    3057    3058
    3057    3059    3060    3061    3060    3062    3063    3064
    3063    3065    3066    3067    3066    3068    3069    3070
    3069    3071    3072    3073    3072    3074    3075    3076
    3075    3077    3078    3079    3078    3080    3081    3082
    3081    3083    3084    3085    3084    3086    3087    3088
    3087    3089    3090    3091    3090    3092    3093    3094
    3093    3095    3096    3097    3096    3098    3099    3100
    3099    3101    3102    3103    3102    3104    3105    3106
    3105    3107    3108    3109    3108    3110    3111    3112
    3111    3113    3114    3115    3114    3116    3117    3118
    3117    3119    3120    3121    3120    3122    3123    3124
    3123    3125    3126    3127    3126    3128    3129    3130
    3129    3131    3132    3133    3132    3134    3135    3136
    3135    3137    3138    3139    3138    3140    3141    3142
    3141    3143    3144    3145    3144    3146    3147    3148
    3147    3149    3150    3151    3150    3152    3153    3154
    3153    3155    3156    3157    3156    3158    3159    3160
    3159    3161    3162    3163    3162    3164    3165    3166
    3165    3167    3168    3169    3168    3170    3171    3172
    3171    3173    3174    3175    3174    3176    3177    3178
    3177    3179    3180    3181    3180    3182    3183    3184
    3183    3185    3186    3187    3186    3188    3189    3190
    3189    3191    3192    3193    3192    3194    3195    3196
    3195    3197    3198    3199    3198    3200    3201    3202
    3201    3203    3204    3205    3204    3206    3207    3208
    3207    3209    3210    3211    3210    3212    3213    3214
    3213    3215    3216    3217    3216    3218    3219    3220
    3219    3221    3222    3223    3222    3224    3225    3226
    3225    3227    3228    3229    3228    3230    3231    3232
    3231    3233    3234    3235    3234    3236    3237    3238
    3237    3239    3240    3241    3240    3242    3243    3244
    3243    3245    3246    3247    3246    3248    3249    3250
    3249    3251    3252    3253    3252    3254    3255    3256
    3255    3257    3258    3259    3258    3260    3261    3262
    3261    3263    3264    3265    3264    3266    3267    3268
    3267    3269    3270    3271    3270    3272    3273    3274
    3273    3275    3276    3277    3276    3278    3279    3280
    3279    3281    3282    3283    3282    3284    3285    3286
    3285    3287    3288    3289    3288    3290    3291    3292
    3291    3293    3294    3295    3294    3296    3297    3298
    3297    3299    3300    3301    3300    3302    3303    3304
    3303    3305    3306    3307    3306    3308    3309    3310
    3309    3311    3312    3313    3312    3314    3315    3316
    3315    3317    3318    3319    3318    3320    3321    3322
    3321    3323    3324    3325    3324    3326    3327    3328
    3327    3329    3330    3331    3330    3332    3333    3334
    3333    3335    3336    3337    3336    3338    3339    3340
    3339    3341    3342    3343    3342    3344    3345    3346
    3345    3347    3348    3349    3348    3350    3351    3352
    3351    3353    3354    3355    3354    3356    3357    3358
    3357    3359    3360    3361    3360    3362    3363    3364
    3363    3365    3366    3367    3366    3368    3369    3370
    3369    3371    3372    3373    3372    3374    3375    3376
    3375    3377    3378    3379    3378    3380    3381    3382
    3381    3383    3384    3385    3384    3386    3387    3388
    3387    3389    3390    3391    3390    3392    3393    3394
    3393    3395    3396    3397    3396    3398    3399    3400
    3399    3401    3402    3403    3402    3404    3405    3406
    3405    3407    3408    3409    3408    3410    3411    3412
    3411    3413    3414    3415    3414    3416    3417    3418
    3417    3419    3420    3421    3420    3422    3423    3424
    3423    3425    3426    3427    3426    3428    3429    3430
    3429    3431    3432    3433    3432    3434    3435    3436
    3435    3437    3438    3439    3438    3440    3441    3442
    3441    3443    3444    3445    3444    3446    3447    3448
    3447    3449    3450    3451    3450    3452    3453    3454
    3453    3455    3456    3457    3456    3458    3459    3460
    3459    3461    3462    3463    3462    3464    3465    3466
    3465    3467    3468    3469    3468    3470    3471    3472
    3471    3473    3474    3475    3474    3476    3477    3478
    3477    3479    3480    3481    3480    3482    3483    3484
    3483    3485    3486    3487    3486    3488    3489    3490
    3489    3491    3492    3493    3492    3494    3495    3496
    3495    3497    3498    3499    3498    3500    3501    3502
    3501    3503    3504    3505    3504    3506    3507    3508
    3507    3509    3510    3511    3510    3512    3513    3514
    3513    3515    3516    3517    3516    3518    3519    3520
    3519    3521    3522    3523    3522    3524    3525    3526
    3525    3527    3528    3529    3528    3530    3531    3532
    3531    3533    3534    3535    3534    3536    3537    3538
    3537    3539    3540    3541    3540    3542    3543    3544
    3543    3545    3546    3547    3546    3548    3549    3550
    3549    3551    3552    3553    3552    3554    3555    3556
    3555    3557    3558    3559    3558    3560    3561    3562
    3561    3563    3564    3565    3564    3566    3567    3568
    3567    3569    3570    3571    3570    3572    3573    3574
    3573    3575    3576    3577    3576    3578    3579    3580
    3579    3581    3582    3583    3582    3584    3585    3586
    3585    3587    3588    3589    3588    3590    3591    3592
    3591    3593    3594    3595    3594    3596    3597    3598
    3597    3599    3600    3601    3600    3602    3603    3604
    3603    3605    3606    3607    3606    3608    3609    3610
    3609    3611    3612    3613    3612    3614    3615    3616
    3615    3617    3618    3619    3618    3620    3621    3622
    3621    3623    3624    3625    3624    3626    3627    3628
    3627    3629    3630    3631    3630    3632    3633    3634
    3633    3635    3636    3637    3636    3638    3639    3640
    3639    3641    3642    3643    3642    3644    3645    3646
    3645    3647    3648    3649    3648    3650    3651    3652
    3651    3653    3654    3655    3654    3656    3657    3658
    3657    3659    3660    3661    3660    3662    3663    3664
    3663    3665    3666    3667    3666    3668    3669    3670
    3669    3671    3672    3673    3672    3674    3675    3676
    3675    3677    3678    3679    3678    3680    3681    3682
    3681    3683    3684    3685    3684    3686    3687    3688
    3687    3689    3690    3691    3690    3692    3693    3694
    3693    3695    3696    3697    3696    3698    3699    3700
    3699    3701    3702    3703    3702    3704    3705    3706
    3705    3707    3708    3709    3708    3710    3711    3712
    3711    3713    3714    3715    3714    3716    3717    3718
    3717    3719    3720    3721    3720    3722    3723    3724
    3723    3725    3726    3727    3726    3728    3729    3730
    3729    3731    3732    3733    3732    3734    3735    3736
    3735    3737    3738    3739    3738    3740    3741    3742
    3741    3743    3744    3745    3744    3746    3747    3748
    3747    3749    3750    3751    3750    3752    3753    3754
    3753    3755    3756    3757    3756    3758    3759    3760
    3759    3761    3762    3763    3762    3764    3765    3766
    3765    3767    3768    3769    3768    3770    3771    3772
    3771    3773    3774    3775    3774    3776    3777    3778
    3777    3779    3780    3781    3780    3782    3783    3784
    3783    3785    3786    3787    3786    3788    3789    3790
    3789    3791    3792    3793    3792    3794    3795    3796
    3795    3797    3798    3799    3798    3800    3801    3802
    3801    3803    3804    3805    3804    3806    3807    3808
    3807    3809    3810    3811    3810    3812    3813    3814
    3813    3815    3816    3817    3816    3818    3819    3820
    3819    3821    3822    3823    3822    3824    3825    3826
    3825    3827    3828    3829    3828    3830    3831    3832
    3831    3833    3834    3835    3834    3836    3837    3838
    3837    3839    3840    3841    3840    3842    3843    3844
    3843    3845    3846    3847    3846    3848    3849    3850
    3849    3851    3852    3853    3852    3854    3855    3856
    3855    3857    3858    3859    3858    3860    3861    3862
    3861    3863    3864    3865    3864    3866    3867    3868
    3867    3869    3870    3871    3870    3872    3873    3874
    3873    3875    3876    3877    3876    3878    3879    3880
    3879    3881    3882    3883    3882    3884    3885    3886
    3885    3887    3888    3889    3888    3890    3891    3892
    3891    3893    3894    3895    3894    3896    3897    3898
    3897    3899    3900    3901    3900    3902    3903    3904
    3903    3905    3906    3907    3906    3908    3909    3910
    3909    3911    3912    3913    3912    3914    3915    3916
    3915    3917    3918    3919    3918    3920    3921    3922
    3921    3923    3924    3925    3924    3926    3927    3928
    3927    3929    3930    3931    3930    3932    3933    3934
    3933    3935    3936    3937    3936    3938    3939    3940
    3939    3941    3942    3943    3942    3944    3945    3946
    3945    3947    3948    3949    3948    3950    3951    3952
    3951    3953    3954    3955    3954    3956    3957    3958
    3957    3959    3960    3961    3960    3962    3963    3964
    3963    3965    3966    3967    3966    3968    3969    3970
    3969    3971    3972    3973    3972    3974    3975    3976
    3975    3977    3978    3979    3978    3980    3981    3982
    3981    3983    3984    3985    3984    3986    3987    3988
    3987    3989    3990    3991    3990    3992    3993    3994
    3993    3995    3996    3997    3996    3998    3999    4000
    3999    4001    4002    4003    4002    4004    4005    4006
    4005    4007    4008    4009    4008    4010    4011    4012
    4011    4013    4014    4015    4014    4016    4017    4018
    4017    4019    4020    4021    4020    4022    4023    4024
    4023    4025    4026    4027    4026    4028    4029    4030
    4029    4031    4032    4033    4032    4034    4035    4036
    4035    4037    4038    4039    4038    4040    4041    4042
    4041    4043    4044    4045    4044    4046    4047    4048
    4047    4049    4050    4051    4050    4052    4053    4054
    4053    4055    4056    4057    4056    4058    4059    4060
    4059    4061    4062    4063    4062    4064    4065    4066
    4065    4067    4068    4069    4068    4070    4071    4072
    4071    4073    4074    4075    4074    4076    4077    4078
    4077    4079    4080    4081    4080    4082    4083    4084
    4083    4085    4086    4087    4086    4088    4089    4090
    4089    4091    4092    4093    4092    4094    4095    4096
    4095    4097    4098    4099    4098    4100    4101    4102
    4101    4103    4104    4105    4104    4106    4107    4108
    4107    4109    4110    4111    4110    4112    4113    4114
    4113    4115    4116    4117    4116    4118    4119    4120
    4119    4121    4122    4123    4122    4124    4125    4126
    4125    4127    4128    4129    4128    4130    4131    4132
    4131    4133    4134    4135    4134    4136    4137    4138
    4137    4139    4140    4141    4140    4142    4143    4144
    4143    4145    4146    4147    4146    4148    4149    4150
    4149    4151    4152    4153    4152    4154    4155    4156
    4155    4157    4158    4159    4158    4160    4161    4162
    4161    4163    4164    4165    4164    4166    4167    4168
    4167    4169    4170    4171    4170    4172    4173    4174
    4173    4175    4176    4177    4176    4178    4179    4180
    4179    4181    4182    4183    4182    4184    4185    4186
    4185    4187    4188    4189    4188    4190    4191    4192
    4191    4193    4194    4195    4194    4196    4197    4198
    4197    4199    4200    4201    4200    4202    4203    4204
    4203    4205    4206    4207    4206    4208    4209    4210
    4209    4211    4212    4213    4212    4214    4215    4216
    4215    4217    4218    4219    4218    4220    4221    4222
    4221    4223    4224    4225    4224    4226    4227    4228
    4227    4229    4230    4231    4230    4232    4233    4234
    4233    4235    4236    4237    4236    4238    4239    4240
    4239    4241    4242    4243    4242    4244    4245    4246
    4245    4247    4248    4249    4248    4250    4251    4252
    4251    4253    4254    4255    4254    4256    4257    4258
    4257    4259    4260    4261    4260    4262    4263    4264
    4263    4265    4266    4267    4266    4268    4269    4270
    4269    4271    4272    4273    4272    4274    4275    4276
    4275    4277    4278    4279    4278    4280    4281    4282
    4281    4283    4284    4285    4284    4286    4287    4288
    4287    4289    4290    4291    4290    4292    4293    4294
    4293    4295    4296    4297    4296    4298    4299    4300
    4299    4301    4302    4303    4302    4304    4305    4306
    4305    4307    4308    4309    4308    4310    4311    4312
    4311    4313    4314    4315    4314    4316    4317    4318
    4317    4319    4320    4321    4320    4322    4323    4324
    4323    4325    4326    4327    4326    4328    4329    4330
    4329    4331    4332    4333    4332    4334    4335    4336
    4335    4337    4338    4339    4338    4340    4341    4342
    4341    4343    4344    4345    4344    4346    4347    4348
    4347    4349    4350    4351    4350    4352    4353    4354
    4353    4355    4356    4357    4356    4358    4359    4360
    4359    4361    4362    4363    4362    4364    4365    4366
    4365    4367    4368    4369    4368    4370    4371    4372
    4371    4373    4374    4375    4374    4376    4377    4378
    4377    4379    4380    4381    4380    4382    4383    4384
    4383    4385    4386    4387    4386    4388    4389    4390
    4389    4391    4392    4393    4392    4394    4395    4396
    4395    4397    4398    4399    4398    4400    4401    4402
    4401    4403    4404    4405    4404    4406    4407    4408
    4407    4409    4410    4411    4410    4412    4413    4414
    4413    4415    4416    4417    4416    4418    4419    4420
    4419    4421    4422    4423    4422    4424    4425    4426
    4425    4427    4428    4429    4428    4430    4431    4432
    4431    4433    4434    4435    4434    4436    4437    4438
    4437    4439    4440    4441    4440    4442    4443    4444
    4443    4445    4446    4447    4446    4448    4449    4450
    4449    4451    4452    4453    4452    4454    4455    4456
    4455    4457    4458    4459    4458    4460    4461    4462
    4461    4463    4464    4465    4464    4466    4467    4468
    4467    4469    4470    4471    4470    4472    4473    4474
    4473    4475    4476    4477    4476    4478    4479    4480
    4479    4481    4482    4483    4482    4484    4485    4486
    4485    4487    4488    4489    4488    4490    4491    4492
    4491    4493    4494    4495    4494    4496    4497    4498
    4497    4499    4500    4501    4500    4502    4503    4504
    4503    4505    4506    4507    4506    4508    4509    4510
    4509    4511    4512    4513    4512    4514    4515    4516
    4515    4517    4518    4519    4518    4520    4521    4522
    4521    4523    4524    4525    4524    4526    4527    4528
    4527    4529    4530    4531    4530    4532    4533    4534
    4533    4535    4536    4537    4536    4538    4539    4540
    4539    4541    4542    4543    4542    4544    4545    4546
    4545    4547    4548    4549    4548    4550    4551    4552
    4551    4553    4554    4555    4554    4556    4557    4558
    4557    4559    4560    4561    4560    4562    4563    4564
    4563    4565    4566    4567    4566    4568    4569    4570
    4569    4571    4572    4573    4572    4574    4575    4576
    4575    4577    4578    4579    4578    4580    4581    4582
    4581    4583    4584    4585    4584    4586    4587    4588
    4587    4589    4590    4591    4590    4592    4593    4594
    4593    4595    4596    4597    4596    4598    4599    4600
    4599    4601    4602    4603    4602    4604    4605    4606
    4605    4607    4608    4609    4608    4610    4611    4612
    4611    4613    4614    4615    4614    4616    4617    4618
    4617    4619    4620    4621    4620    4622    4623    4624
    4623    4625    4626    4627    4626    4628    4629    4630
    4629    4631    4632    4633    4632    4634    4635    4636
    4635    4637    4638    4639    4638    4640    4641    4642
    4641    4643    4644    4645    4644    4646    4647    4648
    4647    4649    4650    4651    4650    4652    4653    4654
    4653    4655    4656    4657    4656    4658    4659    4660
    4659    4661    4662    4663    4662    4664    4665    4666
    4665    4667    4668    4669    4668    4670    4671    4672
    4671    4673    4674    4675    4674    4676    4677    4678
    4677    4679    4680    4681    4680    4682    4683    4684
    4683    4685    4686    4687    4686    4688    4689    4690
    4689    4691    4692    4693    4692    4694    4695    4696
    4695    4697    4698    4699    4698    4700    4701    4702
    4701    4703    4704    4705    4704    4706    4707    4708
    4707    4709    4710    4711    4710    4712    4713    4714
    4713    4715    4716    4717    4716    4718    4719    4720
    4719    4721    4722    4723    4722    4724    4725    4726
    4725    4727    4728    4729    4728    4730    4731    4732
    4731    4733    4734    4735    4734    4736    4737    4738
    4737    4739    4740    4741    4740    4742    4743    4744
    4743    4745    4746    4747    4746    4748    4749    4750
    4749    4751    4752    4753    4752    4754    4755    4756
    4755    4757    4758    4759    4758    4760    4761    4762
    4761    4763    4764    4765    4764    4766    4767    4768
    4767    4769    4770    4771    4770    4772    4773    4774
    4773    4775    4776    4777    4776    4778    4779    4780
    4779    4781    4782    4783    4782    4784    4785    4786
    4785    4787    4788    4789    4788    4790    4791    4792
    4791    4793    4794    4795    4794    4796    4797    4798
    4797    4799    4800    4801    4800    4802    4803    4804
    4803    4805    4806    4807    4806    4808    4809    4810
    4809    4811    4812    4813    4812    4814    4815    4816
    4815    4817    4818    4819    4818    4820    4821    4822
    4821    4823    4824    4825    4824    4826    4827    4828
    4827    4829    4830    4831    4830    4832    4833    4834
    4833    4835    4836    4837    4836    4838    4839    4840
    4839    4841    4842    4843    4842    4844    4845    4846
    4845    4847    4848    4849    4848    4850    4851    4852
    4851    4853    4854    4855    4854    4856    4857    4858
    4857    4859    4860    4861    4860    4862    4863    4864
    4863    4865    4866    4867    4866    4868    4869    4870
    4869    4871    4872    4873    4872    4874    4875    4876
    4875    4877    4878    4879    4878    4880    4881    4882
    4881    4883    4884    4885    4884    4886    4887    4888
    4887    4889    4890    4891    4890    4892    4893    4894
    4893    4895    4896    4897    4896    4898    4899    4900
    4899    4901    4902    4903    4902    4904    4905    4906
    4905    4907    4908    4909    4908    4910    4911    4912
    4911    4913    4914    4915    4914    4916    4917    4918
    4917    4919    4920    4921    4920    4922    4923    4924
    4923    4925    4926    4927    4926    4928    4929    4930
    4929    4931    4932    4933    4932    4934    4935    4936
    4935    4937    4938    4939    4938    4940    4941    4942
    4941    4943    4944    4945    4944    4946    4947    4948
    4947    4949    4950    4951    4950    4952    4953    4954
    4953    4955    4956    4957    4956    4958    4959    4960
    4959    4961    4962    4963    4962    4964    4965    4966
    4965    4967    4968    4969    4968    4970    4971    4972
    4971    4973    4974    4975    4974    4976    4977    4978
    4977    4979    4980    4981    4980    4982    4983    4984
    4983    4985    4986    4987    4986    4988    4989    4990
    4989    4991    4992    4993    4992    4994    4995    4996
    4995    4997    4998    4999    4998    5000    5001    5002
    5001    5003    5004    5005    5004    5006    5007    5008
    5007    5009    5010    5011    5010    5012    5013    5014
    5013    5015    5016    5017    5016    5018    5019    5020
    5019    5021    5022    5023    5022    5024    5025    5026
    5025    5027    5028    5029    5028    5030    5031    5032
    5031    5033    5034    5035    5034    5036    5037    5038
    5037    5039    5040    5041    5040    5042    5043    5044
    5043    5045    5046    5047    5046    5048    5049    5050
    5049    5051    5052    5053    5052    5054    5055    5056
    5055    5057    5058    5059    5058    5060    5061    5062
    5061    5063    5064    5065    5064    5066    5067    5068
    5067    5069    5070    5071    5070    5072    5073    5074
    5073    5075    5076    5077    5076    5078    5079    5080
    5079    5081    5082    5083    5082    5084    5085    5086
    5085    5087    5088    5089    5088    5090    5091    5092
    5091    5093    5094    5095    5094    5096    5097    5098
    5097    5099    5100    5101    5100    5102    5103    5104
    5103    5105    5106    5107    5106    5108    5109    5110
    5109    5111    5112    5113    5112    5114    5115    5116
    5115    5117    5118    5119    5118    5120    5121    5122
    5121    5123    5124    5125    5124    5126    5127    5128
    5127    5129    5130    5131    5130    5132    5133    5134
    5133    5135    5136    5137    5136    5138    5139    5140
    5139    5141    5142    5143    5142    5144    5145    5146
    5145    5147    5148    5149    5148    5150    5151    5152
    5151    5153    5154    5155    5154    5156    5157    5158
    5157    5159    5160    5161    5160    5162    5163    5164
    5163    5165    5166    5167    5166    5168    5169    5170
    5169    5171    5172    5173    5172    5174    5175    5176
    5175    5177    5178    5179    5178    5180    5181    5182
    5181    5183    5184    5185    5184    5186    5187    5188
    5187    5189    5190    5191    5190    5192    5193    5194
    5193    5195    5196    5197    5196    5198    5199    5200
    5199    5201    5202    5203    5202    5204    5205    5206
    5205    5207    5208    5209    5208    5210    5211    5212
    5211    5213    5214    5215    5214    5216    5217    5218
    5217    5219    5220    5221    5220    5222    5223    5224
    5223    5225    5226    5227    5226    5228    5229    5230
    5229    5231    5232    5233    5232    5234    5235    5236
    5235    5237    5238    5239    5238    5240    5241    5242
    5241    5243    5244    5245    5244    5246    5247    5248
    5247    5249    5250    5251    5250    5252    5253    5254
    5253    5255    5256    5257    5256    5258    5259    5260
    5259    5261    5262    5263    5262    5264    5265    5266
    5265    5267    5268    5269    5268    5270    5271    5272
    5271    5273    5274    5275    5274    5276    5277    5278
    5277    5279    5280    5281    5280    5282    5283    5284
    5283    5285    5286    5287    5286    5288    5289    5290
    5289    5291    5292    5293    5292    5294    5295    5296
    5295    5297    5298    5299    5298    5300    5301    5302
    5301    5303    5304    5305    5304    5306    5307    5308
    5307    5309    5310    5311    5310    5312    5313    5314
    5313    5315    5316    5317    5316    5318    5319    5320
    5319    5321    5322    5323    5322    5324    5325    5326
    5325    5327    5328    5329    5328    5330    5331    5332
    5331    5333    5334    5335    5334    5336    5337    5338
    5337    5339    5340    5341    5340    5342    5343    5344
    5343    5345    5346    5347    5346    5348    5349    5350
    5349    5351    5352    5353    5352    5354    5355    5356
    5355    5357    5358    5359    5358    5360    5361    5362
    5361    5363    5364    5365    5364    5366    5367    5368
    5367    5369    5370    5371    5370    5372    5373    5374
    5373    5375    5376    5377    5376    5378    5379    5380
    5379    5381    5382    5383    5382    5384    5385    5386
    5385    5387    5388    5389    5388    5390    5391    5392
    5391    5393    5394    5395    5394    5396    5397    5398
    5397    5399    5400    5401    5400    5402    5403    5404
    5403    5405    5406    5407    5406    5408    5409    5410
    5409    5411    5412    5413    5412    5414    5415    5416
    5415    5417    5418    5419    5418    5420    5421    5422
    5421    5423    5424    5425    5424    5426    5427    5428
    5427    5429    5430    5431    5430    5432    5433    5434
    5433    5435    5436    5437    5436    5438    5439    5440
    5439    5441    5442    5443    5442    5444    5445    5446
    5445    5447    5448    5449    5448    5450    5451    5452
    5451    5453    5454    5455    5454    5456    5457    5458
    5457    5459    5460    5461    5460    5462    5463    5464
    5463    5465    5466    5467    5466    5468    5469    5470
    5469    5471    5472    5473    5472    5474    5475    5476
    5475    5477    5478    5479    5478    5480    5481    5482
    5481    5483    5484    5485    5484    5486    5487    5488
    5487    5489    5490    5491    5490    5492    5493    5494
    5493    5495    5496    5497    5496    5498    5499    5500
    5499    5501    5502    5503    5502    5504    5505    5506
    5505    5507    5508    5509    5508    5510    5511    5512
    5511    5513    5514    5515    5514    5516    5517    5518
    5517    5519    5520    5521    5520    5522    5523    5524
    5523    5525    5526    5527    5526    5528    5529    5530
    5529    5531    5532    5533    5532    5534    5535    5536
    5535    5537    5538    5539    5538    5540    5541    5542
    5541    5543    5544    5545    5544    5546    5547    5548
    5547    5549    5550    5551    5550    5552    5553    5554
    5553    5555    5556    5557    5556    5558    5559    5560
    5559    5561    5562    5563    5562    5564    5565    5566
    5565    5567    5568    5569    5568    5570    5571    5572
    5571    5573    5574    5575    5574    5576    5577    5578
    5577    5579    5580    5581    5580    5582    5583    5584
    5583    5585    5586    5587    5586    5588    5589    5590
    5589    5591    5592    5593    5592    5594    5595    5596
    5595    5597    5598    5599    5598    5600    5601    5602
    5601    5603    5604    5605    5604    5606    5607    5608
    5607    5609    5610    5611    5610    5612    5613    5614
    5613    5615    5616    5617    5616    5618    5619    5620
    5619    5621    5622    5623    5622    5624    5625    5626
    5625    5627    5628    5629    5628    5630    5631    5632
    5631    5633    5634    5635    5634    5636    5637    5638
    5637    5639    5640    5641    5640    5642    5643    5644
    5643    5645    5646    5647    5646    5648    5649    5650
    5649    5651    5652    5653    5652    5654    5655    5656
    5655    5657    5658    5659    5658    5660    5661    5662
    5661    5663    5664    5665    5664    5666    5667    5668
    5667    5669    5670    5671    5670    5672    5673    5674
    5673    5675    5676    5677    5676    5678    5679    5680
    5679    5681    5682    5683    5682    5684    5685    5686
    5685    5687    5688    5689    5688    5690    5691    5692
    5691    5693    5694    5695    5694    5696    5697    5698
    5697    5699    5700    5701    5700    5702    5703    5704
    5703    5705    5706    5707    5706    5708    5709    5710
    5709    5711    5712    5713    5712    5714    5715    5716
    5715    5717    5718    5719    5718    5720    5721    5722
    5721    5723    5724    5725    5724    5726    5727    5728
    5727    5729    5730    5731    5730    5732    5733    5734
    5733    5735    5736    5737    5736    5738    5739    5740
    5739    5741    5742    5743    5742    5744    5745    5746
    5745    5747    5748    5749    5748    5750    5751    5752
    5751    5753    5754    5755    5754    5756    5757    5758
    5757    5759    5760    5761    5760    5762    5763    5764
    5763    5765    5766    5767    5766    5768    5769    5770
    5769    5771    5772    5773    5772    5774    5775    5776
    5775    5777    5778    5779    5778    5780    5781    5782
    5781    5783    5784    5785    5784    5786    5787    5788
    5787    5789    5790    5791    5790    5792    5793    5794
    5793    5795    5796    5797    5796    5798    5799    5800
    5799    5801    5802    5803    5802    5804    5805    5806
    5805    5807    5808    5809    5808    5810    5811    5812
    5811    5813    5814    5815    5814    5816    5817    5818
    5817    5819    5820    5821    5820    5822    5823    5824
    5823    5825    5826    5827    5826    5828    5829    5830
    5829    5831    5832    5833    5832    5834    5835    5836
    5835    5837    5838    5839    5838    5840    5841    5842
    5841    5843    5844    5845    5844    5846    5847    5848
    5847    5849    5850    5851    5850    5852    5853    5854
    5853    5855    5856    5857    5856    5858    5859    5860
    5859    5861    5862    5863    5862    5864    5865    5866
    5865    5867    5868    5869    5868    5870    5871    5872
    5871    5873    5874    5875    5874    5876    5877    5878
    5877    5879    5880    5881    5880    5882    5883    5884
    5883    5885    5886    5887    5886    5888    5889    5890
    5889    5891    5892    5893    5892    5894    5895    5896
    5895    5897    5898    5899    5898    5900    5901    5902
    5901    5903    5904    5905    5904    5906    5907    5908
    5907    5909    5910    5911    5910    5912    5913    5914
    5913    5915    5916    5917    5916    5918    5919    5920
    5919    5921    5922    5923    5922    5924    5925    5926
    5925    5927    5928    5929    5928    5930    5931    5932
    5931    5933    5934    5935    5934    5936    5937    5938
    5937    5939    5940    5941    5940    5942    5943    5944
    5943    5945    5946    5947    5946    5948    5949    5950
    5949    5951    5952    5953    5952    5954    5955    5956
    5955    5957    5958    5959    5958    5960    5961    5962
    5961    5963    5964    5965    5964    5966    5967    5968
    5967    5969    5970    5971    5970    5972    5973    5974
    5973    5975    5976    5977    5976    5978    5979    5980
    5979    5981    5982    5983    5982    5984    5985    5986
    5985    5987    5988    5989    5988    5990    5991    5992
    5991    5993    5994    5995    5994    5996    5997    5998
    5997    5999    6000    6001    6000    6002    6003    6004
    6003    6005    6006    6007    6006    6008    6009    6010
    6009    6011    6012    6013    6012    6014    6015    6016
    6015    6017    6018    6019    6018    6020    6021    6022
    6021    6023    6024    6025    6024    6026    6027    6028
    6027    6029    6030    6031    6030    6032    6033    6034
    6033    6035    6036    6037    6036    6038    6039    6040
    6039    6041    6042    6043    6042    6044    6045    6046
    6045    6047    6048    6049    6048    6050    6051    6052
    6051    6053    6054    6055    6054    6056    6057    6058
    6057    6059    6060    6061    6060    6062    6063    6064
    6063    6065    6066    6067    6066    6068    6069    6070
    6069    6071    6072    6073    6072    6074    6075    6076
    6075    6077    6078    6079    6078    6080    6081    6082
    6081    6083    6084    6085    6084    6086    6087    6088
    6087    6089    6090    6091    6090    6092    6093    6094
    6093    6095    6096    6097    6096    6098    6099    6100
    6099    6101    6102    6103    6102    6104    6105    6106
    6105    6107    6108    6109    6108    6110    6111    6112
    6111    6113    6114    6115    6114    6116    6117    6118
    6117    6119    6120    6121    6120    6122    6123    6124
    6123    6125    6126    6127    6126    6128    6129    6130
    6129    6131    6132    6133    6132    6134    6135    6136
    6135    6137    6138    6139    6138    6140    6141    6142
    6141    6143    6144    6145    6144    6146    6147    6148
    6147    6149    6150    6151    6150    6152    6153    6154
    6153    6155    6156    6157    6156    6158    6159    6160
    6159    6161    6162    6163    6162    6164    6165    6166
    6165    6167    6168    6169    6168    6170    6171    6172
    6171    6173    6174    6175    6174    6176    6177    6178
    6177    6179    6180    6181    6180    6182    6183    6184
    6183    6185    6186    6187    6186    6188    6189    6190
    6189    6191    6192    6193    6192    6194    6195    6196
    6195    6197    6198    6199    6198    6200    6201    6202
    6201    6203    6204    6205    6204    6206    6207    6208
    6207    6209    6210    6211    6210    6212    6213    6214
    6213    6215    6216    6217    6216    6218    6219    6220
    6219    6221    6222    6223    6222    6224    6225    6226
    6225    6227    6228    6229    6228    6230    6231    6232
    6231    6233    6234    6235    6234    6236    6237    6238
    6237    6239    6240    6241    6240    6242    6243    6244
    6243    6245    6246    6247    6246    6248    6249    6250
    6249    6251    6252    6253    6252    6254    6255    6256
    6255    6257    6258    6259    6258    6260    6261    6262
    6261    6263    6264    6265    6264    6266    6267    6268
    6267    6269    6270    6271    6270    6272    6273    6274
    6273    6275    6276    6277    6276    6278    6279    6280
    6279    6281    6282    6283    6282    6284    6285    6286
    6285    6287    6288    6289    6288    6290    6291    6292
    6291    6293    6294    6295    6294    6296    6297    6298
    6297    6299    6300    6301    6300    6302    6303    6304
    6303    6305    6306    6307    6306    6308    6309    6310
    6309    6311    6312    6313    6312    6314    6315    6316
    6315    6317    6318    6319    6318    6320    6321    6322
    6321    6323    6324    6325    6324    6326    6327    6328
    6327    6329    6330    6331    6330    6332    6333    6334
    6333    6335    6336    6337    6336    6338    6339    6340
    6339    6341    6342    6343    6342    6344    6345    6346
    6345    6347    6348    6349    6348    6350    6351    6352
    6351    6353    6354    6355    6354    6356    6357    6358
    6357    6359    6360    6361    6360    6362    6363    6364
    6363    6365    6366    6367    6366    6368    6369    6370
    6369    6371    6372    6373    6372    6374    6375    6376
    6375    6377    6378    6379    6378    6380    6381    6382
    6381    6383    6384    6385    6384    6386    6387    6388
    6387    6389    6390    6391    6390    6392    6393    6394
    6393    6395    6396    6397    6396    6398    6399    6400
    6399    6401    6402    6403    6402    6404    6405    6406
    6405    6407    6408    6409    6408    6410    6411    6412
    6411    6413    6414    6415    6414    6416    6417    6418
    6417    6419    6420    6421    6420    6422    6423    6424
    6423    6425    6426    6427    6426    6428    6429    6430
    6429    6431    6432    6433    6432    6434    6435    6436
    6435    6437    6438    6439    6438    6440    6441    6442
    6441    6443    6444    6445    6444    6446    6447    6448
    6447    6449    6450    6451    6450    6452    6453    6454
    6453    6455    6456    6457    6456    6458    6459    6460
    6459    6461    6462    6463    6462    6464    6465    6466
    6465    6467    6468    6469    6468    6470    6471    6472
    6471    6473    6474    6475    6474    6476    6477    6478
    6477    6479    6480    6481    6480    6482    6483    6484
    6483    6485    6486    6487    6486    6488    6489    6490
    6489    6491    6492    6493    6492    6494    6495    6496
    6495    6497    6498    6499    6498    6500    6501    6502
    6501    6503    6504    6505    6504    6506    6507    6508
    6507    6509    6510    6511    6510    6512    6513    6514
    6513    6515    6516    6517    6516    6518    6519    6520
    6519    6521    6522    6523    6522    6524    6525    6526
    6525    6527    6528    6529    6528    6530    6531    6532
    6531    6533    6534    6535    6534    6536    6537    6538
    6537    6539    6540    6541    6540    6542    6543    6544
    6543    6545    6546    6547    6546    6548    6549    6550
    6549    6551    6552    6553    6552    6554    6555    6556
    6555    6557    6558    6559    6558    6560    6561    6562
    6561    6563    6564    6565    6564    6566    6567    6568
    6567    6569    6570    6571    6570    6572    6573    6574
    6573    6575    6576    6577    6576    6578    6579    6580
    6579    6581    6582    6583    6582    6584    6585    6586
    6585    6587    6588    6589    6588    6590    6591    6592
    6591    6593    6594    6595    6594    6596    6597    6598
    6597    6599    6600    6601    6600    6602    6603    6604
    6603    6605    6606    6607    6606    6608    6609    6610
    6609    6611    6612    6613    6612    6614    6615    6616
    6615    6617    6618    6619    6618    6620    6621    6622
    6621    6623    6624    6625    6624    6626    6627    6628
    6627    6629    6630    6631    6630    6632    6633    6634
    6633    6635    6636    6637    6636    6638    6639    6640
    6639    6641    6642    6643    6642    6644    6645    6646
    6645    6647    6648    6649    6648    6650    6651    6652
    6651    6653    6654    6655    6654    6656    6657    6658
    6657    6659    6660    6661    6660    6662    6663    6664
    6663    6665    6666    6667    6666    6668    6669    6670
    6669    6671    6672    6673    6672    6674    6675    6676
    6675    6677    6678    6679    6678    6680    6681    6682
    6681    6683    6684    6685    6684    6686    6687    6688
    6687    6689    6690    6691    6690    6692    6693    6694
    6693    6695    6696    6697    6696    6698    6699    6700
    6699    6701    6702    6703    6702    6704    6705    6706
    6705    6707    6708    6709    6708    6710    6711    6712
    6711    6713    6714    6715    6714    6716    6717    6718
    6717    6719    6720    6721    6720    6722    6723    6724
    6723    6725    6726    6727    6726    6728    6729    6730
    6729    6731    6732    6733    6732    6734    6735    6736
    6735    6737    6738    6739    6738    6740    6741    6742
    6741    6743    6744    6745    6744    6746    6747    6748
    6747    6749    6750    6751    6750    6752    6753    6754
    6753    6755    6756    6757    6756    6758    6759    6760
    6759    6761    6762    6763    6762    6764    6765    6766
    6765    6767    6768    6769    6768    6770    6771    6772
    6771    6773    6774    6775    6774    6776    6777    6778
    6777    6779    6780    6781    6780    6782    6783    6784
    6783    6785    6786    6787    6786    6788    6789    6790
    6789    6791    6792    6793    6792    6794    6795    6796
    6795    6797    6798    6799    6798    6800    6801    6802
    6801    6803    6804    6805    6804    6806    6807    6808
    6807    6809    6810    6811    6810    6812    6813    6814
    6813    6815    6816    6817    6816    6818    6819    6820
    6819    6821    6822    6823    6822    6824    6825    6826
    6825    6827    6828    6829    6828    6830    6831    6832
    6831    6833    6834    6835    6834    6836    6837    6838
    6837    6839    6840    6841    6840    6842    6843    6844
    6843    6845    6846    6847    6846    6848    6849    6850
    6849    6851    6852    6853    6852    6854    6855    6856
    6855    6857    6858    6859    6858    6860    6861    6862
    6861    6863    6864    6865    6864    6866    6867    6868
    6867    6869    6870    6871    6870    6872    6873    6874
    6873    6875    6876    6877    6876    6878    6879    6880
    6879    6881    6882    6883    6882    6884    6885    6886
    6885    6887    6888    6889    6888    6890    6891    6892
    6891    6893    6894    6895    6894    6896    6897    6898
    6897    6899    6900    6901    6900    6902    6903    6904
    6903    6905    6906    6907    6906    6908    6909    6910
    6909    6911    6912    6913    6912    6914    6915    6916
    6915    6917    6918    6919    6918    6920    6921    6922
    6921    6923    6924    6925    6924    6926    6927    6928
    6927    6929    6930    6931    6930    6932    6933    6934
    6933    6935    6936    6937    6936    6938    6939    6940
    6939    6941    6942    6943    6942    6944    6945    6946
    6945    6947    6948    6949    6948    6950    6951    6952
    6951    6953    6954    6955    6954    6956    6957    6958
    6957    6959    6960    6961    6960    6962    6963    6964
    6963    6965    6966    6967    6966    6968    6969    6970
    6969    6971    6972    6973    6972    6974    6975    6976
    6975    6977    6978    6979    6978    6980    6981    6982
    6981    6983    6984    6985    6984    6986    6987    6988
    6987    6989    6990    6991    6990    6992    6993    6994
    6993    6995    6996    6997    6996    6998    6999    7000
    6999    7001    7002    7003    7002    7004    7005    7006
    7005    7007    7008    7009    7008    7010    7011    7012
    7011    7013    7014    7015    7014    7016    7017    7018
    7017    7019    7020    7021    7020    7022    7023    7024
    7023    7025    7026    7027    7026    7028    7029    7030
    7029    7031    7032    7033    7032    7034    7035    7036
    7035    7037    7038    7039    7038    7040    7041    7042
    7041    7043    7044    7045    7044    7046    7047    7048
    7047    7049    7050    7051    7050    7052    7053    7054
    7053    7055    7056    7057    7056    7058    7059    7060
    7059    7061    7062    7063    7062    7064    7065    7066
    7065    7067    7068    7069    7068    7070    7071    7072
    7071    7073    7074    7075    7074    7076    7077    7078
    7077    7079    7080    7081    7080    7082    7083    7084
    7083    7085    7086    7087    7086    7088    7089    7090
    7089    7091    7092    7093    7092    7094    7095    7096
    7095    7097    7098    7099    7098    7100    7101    7102
    7101    7103    7104    7105    7104    7106    7107    7108
    7107    7109    7110    7111    7110    7112    7113    7114
    7113    7115    7116    7117    7116    7118    7119    7120
    7119    7121    7122    7123    7122    7124    7125    7126
    7125    7127    7128    7129    7128    7130    7131    7132
    7131    7133    7134    7135    7134    7136    7137    7138
    7137    7139    7140    7141    7140    7142    7143    7144
    7143    7145    7146    7147    7146    7148    7149    7150
    7149    7151    7152    7153    7152    7154    7155    7156
    7155    7157    7158    7159    7158    7160    7161    7162
    7161    7163    7164    7165    7164    7166    7167    7168
    7167    7169    7170    7171    7170    7172    7173    7174
    7173    7175    7176    7177    7176    7178    7179    7180
    7179    7181    7182    7183    7182    7184    7185    7186
    7185    7187    7188    7189    7188    7190    7191    7192
    7191    7193    7194    7195    7194    7196    7197    7198
    7197    7199    7200    7201    7200    7202    7203    7204
    7203    7205    7206    7207    7206    7208    7209    7210
    7209    7211    7212    7213    7212    7214    7215    7216
    7215    7217    7218    7219    7218    7220    7221    7222
    7221    7223    7224    7225    7224    7226    7227    7228
    7227    7229    7230    7231    7230    7232    7233    7234
    7233    7235    7236    7237    7236    7238    7239    7240
    7239    7241    7242    7243    7242    7244    7245    7246
    7245    7247    7248    7249    7248    7250    7251    7252
    7251    7253    7254    7255    7254    7256    7257    7258
    7257    7259    7260    7261    7260    7262    7263    7264
    7263    7265    7266    7267    7266    7268    7269    7270
    7269    7271    7272    7273    7272    7274    7275    7276
    7275    7277    7278    7279    7278    7280    7281    7282
    7281    7283    7284    7285    7284    7286    7287    7288
    7287    7289    7290    7291    7290    7292    7293    7294
    7293    7295    7296    7297    7296    7298    7299    7300
    7299    7301    7302    7303    7302    7304    7305    7306
    7305    7307    7308    7309    7308    7310    7311    7312
    7311    7313    7314    7315    7314    7316    7317    7318
    7317    7319    7320    7321    7320    7322    7323    7324
    7323    7325    7326    7327    7326    7328    7329    7330
    7329    7331    7332    7333    7332    7334    7335    7336
    7335    7337    7338    7339    7338    7340    7341    7342
    7341    7343    7344    7345    7344    7346    7347    7348
    7347    7349    7350    7351    7350    7352    7353    7354
    7353    7355    7356    7357    7356    7358    7359    7360
    7359    7361    7362    7363    7362    7364    7365    7366
    7365    7367    7368    7369    7368    7370    7371    7372
    7371    7373    7374    7375    7374    7376    7377    7378
    7377    7379    7380    7381    7380    7382    7383    7384
    7383    7385    7386    7387    7386    7388    7389    7390
    7389    7391    7392    7393    7392    7394    7395    7396
    7395    7397    7398    7399    7398    7400    7401    7402
    7401    7403    7404    7405    7404    7406    7407    7408
    7407    7409    7410    7411    7410    7412    7413    7414
    7413    7415    7416    7417    7416    7418    7419    7420
    7419    7421    7422    7423    7422    7424    7425    7426
    7425    7427    7428    7429    7428    7430    7431    7432
    7431    7433    7434    7435    7434    7436    7437    7438
    7437    7439    7440    7441    7440    7442    7443    7444
    7443    7445    7446    7447    7446    7448    7449    7450
    7449    7451    7452    7453    7452    7454    7455    7456
    7455    7457    7458    7459    7458    7460    7461    7462
    7461    7463    7464    7465    7464    7466    7467    7468
    7467    7469    7470    7471    7470    7472    7473    7474
    7473    7475    7476    7477    7476    7478    7479    7480
    7479    7481    7482    7483    7482    7484    7485    7486
    7485    7487    7488    7489    7488    7490    7491    7492
    7491    7493    7494    7495    7494    7496    7497    7498
    7497    7499    7500    7501    7500    7502    7503    7504
    7503    7505    7506    7507    7506    7508    7509    7510
    7509    7511    7512    7513    7512    7514    7515    7516
    7515    7517    7518    7519    7518    7520    7521    7522
    7521    7523    7524    7525    7524    7526    7527    7528
    7527    7529    7530    7531    7530    7532    7533    7534
    7533    7535    7536    7537    7536    7538    7539    7540
    7539    7541    7542    7543    7542    7544    7545    7546
    7545    7547    7548    7549    7548    7550    7551    7552
    7551    7553    7554    7555    7554    7556    7557    7558
    7557    7559    7560    7561    7560    7562    7563    7564
    7563    7565    7566    7567    7566    7568    7569    7570
    7569    7571    7572    7573    7572    7574    7575    7576
    7575    7577    7578    7579    7578    7580    7581    7582
    7581    7583    7584    7585    7584    7586    7587    7588
    7587    7589    7590    7591    7590    7592    7593    7594
    7593    7595    7596    7597    7596    7598    7599    7600
    7599    7601    7602    7603    7602    7604    7605    7606
    7605    7607    7608    7609    7608    7610    7611    7612
    7611    7613    7614    7615    7614    7616    7617    7618
    7617    7619    7620    7621    7620    7622    7623    7624
    7623    7625    7626    7627    7626    7628    7629    7630
    7629    7631    7632    7633    7632    7634    7635    7636
    7635    7637    7638    7639    7638    7640    7641    7642
    7641    7643    7644    7645    7644    7646    7647    7648
    7647    7649    7650    7651    7650    7652    7653    7654
    7653    7655    7656    7657    7656    7658    7659    7660
    7659    7661    7662    7663    7662    7664    7665    7666
    7665    7667    7668    7669    7668    7670    7671    7672
    7671    7673    7674    7675    7674    7676    7677    7678
    7677    7679    7680    7681    7680    7682    7683    7684
    7683    7685    7686    7687    7686    7688    7689    7690
    7689    7691    7692    7693    7692    7694    7695    7696
    7695    7697    7698    7699    7698    7700    7701    7702
    7701    7703    7704    7705    7704    7706    7707    7708
    7707    7709    7710    7711    7710    7712    7713    7714
    7713    7715    7716    7717    7716    7718    7719    7720
    7719    7721    7722    7723    7722    7724    7725    7726
    7725    7727    7728    7729    7728    7730    7731    7732
    7731    7733    7734    7735    7734    7736    7737    7738
    7737    7739    7740    7741    7740    7742    7743    7744
    7743    7745    7746    7747    7746    7748    7749    7750
    7749    7751    7752    7753    7752    7754    7755    7756
    7755    7757    7758    7759    7758    7760    7761    7762
    7761    7763    7764    7765    7764    7766    7767    7768
    7767    7769    7770    7771    7770    7772    7773    7774
    7773    7775    7776    7777    7776    7778    7779    7780
    7779    7781    7782    7783    7782    7784    7785    7786
    7785    7787    7788    7789    7788    7790    7791    7792
    7791    7793    7794    7795    7794    7796    7797    7798
    7797    7799    7800    7801    7800    7802    7803    7804
    7803    7805    7806    7807    7806    7808    7809    7810
    7809    7811    7812    7813    7812    7814    7815    7816
    7815    7817    7818    7819    7818    7820    7821    7822
    7821    7823    7824    7825    7824    7826    7827    7828
    7827    7829    7830    7831    7830    7832    7833    7834
    7833    7835    7836    7837    7836    7838    7839    7840
    7839    7841    7842    7843    7842    7844    7845    7846
    7845    7847    7848    7849    7848    7850    7851    7852
    7851    7853    7854    7855    7854    7856    7857    7858
    7857    7859    7860    7861    7860    7862    7863    7864
    7863    7865    7866    7867    7866    7868    7869    7870
    7869    7871    7872    7873    7872    7874    7875    7876
    7875    7877    7878    7879    7878    7880    7881    7882
    7881    7883    7884    7885    7884    7886    7887    7888
    7887    7889    7890    7891    7890    7892    7893    7894
    7893    7895    7896    7897    7896    7898    7899    7900
    7899    7901    7902    7903    7902    7904    7905    7906
    7905    7907    7908    7909    7908    7910    7911    7912
    7911    7913    7914    7915    7914    7916    7917    7918
    7917    7919    7920    7921    7920    7922    7923    7924
    7923    7925    7926    7927    7926    7928    7929    7930
    7929    7931    7932    7933    7932    7934    7935    7936
    7935    7937    7938    7939    7938    7940    7941    7942
    7941    7943    7944    7945    7944    7946    7947    7948
    7947    7949    7950    7951    7950    7952    7953    7954
    7953    7955    7956    7957    7956    7958    7959    7960
    7959    7961    7962    7963    7962    7964    7965    7966
    7965    7967    7968    7969    7968    7970    7971    7972
    7971    7973    7974    7975    7974    7976    7977    7978
    7977    7979    7980    7981    7980    7982    7983    7984
    7983    7985    7986    7987    7986    7988    7989    7990
    7989    7991    7992    7993    7992    7994    7995    7996
    7995    7997    7998    7999    7998    8000    8001    8002
    8001    8003    8004    8005    8004    8006    8007    8008
    8007    8009    8010    8011    8010    8012    8013    8014
    8013    8015    8016    8017    8016    8018    8019    8020
    8019    8021    8022    8023    8022    8024    8025    8026
    8025    8027    8028    8029    8028    8030    8031    8032
    8031    8033    8034    8035    8034    8036    8037    8038
    8037    8039    8040    8041    8040    8042    8043    8044
    8043    8045    8046    8047    8046    8048    8049    8050
    8049    8051    8052    8053    8052    8054    8055    8056
    8055    8057    8058    8059    8058    8060    8061    8062
    8061    8063    8064    8065    8064    8066    8067    8068
    8067    8069    8070    8071    8070    8072    8073    8074
    8073    8075    8076    8077    8076    8078    8079    8080
    8079    8081    8082    8083    8082    8084    8085    8086
    8085    8087    8088    8089    8088    8090    8091    8092
    8091    8093    8094    8095    8094    8096    8097    8098
    8097    8099    8100    8101    8100    8102    8103    8104
    8103    8105    8106    8107    8106    8108    8109    8110
    8109    8111    8112    8113    8112    8114    8115    8116
    8115    8117    8118    8119    8118    8120    8121    8122
    8121    8123    8124    8125    8124    8126    8127    8128
    8127    8129    8130    8131    8130    8132    8133    8134
    8133    8135    8136    8137    8136    8138    8139    8140
    8139    8141    8142    8143    8142    8144    8145    8146
    8145    8147    8148    8149    8148    8150    8151    8152
    8151    8153    8154    8155    8154    8156    8157    8158
    8157    8159    8160    8161    8160    8162    8163    8164
    8163    8165    8166    8167    8166    8168    8169    8170
    8169    8171    8172    8173    8172    8174    8175    8176
    8175    8177    8178    8179    8178    8180    8181    8182
    8181    8183    8184    8185    8184    8186    8187    8188
    8187    8189    8190    8191    8190    8192    8193    8194
    8193    8195    8196    8197    8196    8198    8199    8200
    8199    8201    8202    8203    8202    8204    8205    8206
    8205    8207    8208    8209    8208    8210    8211    8212
    8211    8213    8214    8215    8214    8216    8217    8218
    8217    8219    8220    8221    8220    8222    8223    8224
    8223    8225    8226    8227    8226    8228    8229    8230
    8229    8231    8232    8233    8232    8234    8235    8236
    8235    8237    8238    8239    8238    8240    8241    8242
    8241    8243    8244    8245    8244    8246    8247    8248
    8247    8249    8250    8251    8250    8252    8253    8254
    8253    8255    8256    8257    8256    8258    8259    8260
    8259    8261    8262    8263    8262    8264    8265    8266
    8265    8267    8268    8269    8268    8270    8271    8272
    8271    8273    8274    8275    8274    8276    8277    8278
    8277    8279    8280    8281    8280    8282    8283    8284
    8283    8285    8286    8287    8286    8288    8289    8290
    8289    8291    8292    8293    8292    8294    8295    8296
    8295    8297    8298    8299    8298    8300    8301    8302
    8301    8303    8304    8305    8304    8306    8307    8308
    8307    8309    8310    8311    8310    8312    8313    8314
    8313    8315    8316    8317    8316    8318    8319    8320
    8319    8321    8322    8323    8322    8324    8325    8326
    8325    8327    8328    8329    8328    8330    8331    8332
    8331    8333    8334    8335    8334    8336    8337    8338
    8337    8339    8340    8341    8340    8342    8343    8344
    8343    8345    8346    8347    8346    8348    8349    8350
    8349    8351    8352    8353    8352    8354    8355    8356
    8355    8357    8358    8359    8358    8360    8361    8362
    8361    8363    8364    8365    8364    8366    8367    8368
    8367    8369    8370    8371    8370    8372    8373    8374
    8373    8375    8376    8377    8376    8378    8379    8380
    8379    8381    8382    8383    8382    8384    8385    8386
    8385    8387    8388    8389    8388    8390    8391    8392
    8391    8393    8394    8395    8394    8396    8397    8398
    8397    8399    8400    8401    8400    8402    8403    8404
    8403    8405    8406    8407    8406    8408    8409    8410
    8409    8411    8412    8413    8412    8414    8415    8416
    8415    8417    8418    8419    8418    8420    8421    8422
    8421    8423    8424    8425    8424    8426    8427    8428
    8427    8429    8430    8431    8430    8432    8433    8434
    8433    8435    8436    8437    8436    8438    8439    8440
    8439    8441    8442    8443    8442    8444    8445    8446
    8445    8447    8448    8449    8448    8450    8451    8452
    8451    8453    8454    8455    8454    8456    8457    8458
    8457    8459    8460    8461    8460    8462    8463    8464
    8463    8465    8466    8467    8466    8468    8469    8470
    8469    8471    8472    8473    8472    8474    8475    8476
    8475    8477    8478    8479    8478    8480    8481    8482
    8481    8483    8484    8485    8484    8486    8487    8488
    8487    8489    8490    8491    8490    8492    8493    8494
    8493    8495    8496    8497    8496    8498    8499    8500
    8499    8501    8502    8503    8502    8504    8505    8506
    8505    8507    8508    8509    8508    8510    8511    8512
    8511    8513    8514    8515    8514    8516    8517    8518
    8517    8519    8520    8521    8520    8522    8523    8524
    8523    8525    8526    8527    8526    8528    8529    8530
    8529    8531    8532    8533    8532    8534    8535    8536
    8535    8537    8538    8539    8538    8540    8541    8542
    8541    8543    8544    8545    8544    8546    8547    8548
    8547    8549    8550    8551    8550    8552    8553    8554
    8553    8555    8556    8557    8556    8558    8559    8560
    8559    8561    8562    8563    8562    8564    8565    8566
    8565    8567    8568    8569    8568    8570    8571    8572
    8571    8573    8574    8575    8574    8576    8577    8578
    8577    8579    8580    8581    8580    8582    8583    8584
    8583    8585    8586    8587    8586    8588    8589    8590
    8589    8591    8592    8593    8592    8594    8595    8596
    8595    8597    8598    8599    8598    8600    8601    8602
    8601    8603    8604    8605    8604    8606    8607    8608
    8607    8609    8610    8611    8610    8612    8613    8614
    8613    8615    8616    8617    8616    8618    8619    8620
    8619    8621    8622    8623    8622    8624    8625    8626
    8625    8627    8628    8629    8628    8630    8631    8632
    8631    8633    8634    8635    8634    8636    8637    8638
    8637    8639    8640    8641    8640    8642    8643    8644
    8643    8645    8646    8647    8646    8648    8649    8650
    8649    8651    8652    8653    8652    8654    8655    8656
    8655    8657    8658    8659    8658    8660    8661    8662
    8661    8663    8664    8665    8664    8666    8667    8668
    8667    8669    8670    8671    8670    8672    8673    8674
    8673    8675    8676    8677    8676    8678    8679    8680
    8679    8681    8682    8683    8682    8684    8685    8686
    8685    8687    8688    8689    8688    8690    8691    8692
    8691    8693    8694    8695    8694    8696    8697    8698
    8697    8699    8700    8701    8700    8702    8703    8704
    8703    8705    8706    8707    8706    8708    8709    8710
    8709    8711    8712    8713    8712    8714    8715    8716
    8715    8717    8718    8719    8718    8720    8721    8722
    8721    8723    8724    8725    8724    8726    8727    8728
    8727    8729    8730    8731    8730    8732    8733    8734
    8733    8735    8736    8737    8736    8738    8739    8740
    8739    8741    8742    8743    8742    8744    8745    8746
    8745    8747    8748    8749    8748    8750    8751    8752
    8751    8753    8754    8755    8754    8756    8757    8758
    8757    8759    8760    8761    8760    8762    8763    8764
    8763    8765    8766    8767    8766    8768    8769    8770
    8769    8771    8772    8773    8772    8774    8775    8776
    8775    8777    8778    8779    8778    8780    8781    8782
    8781    8783    8784    8785    8784    8786    8787    8788
    8787    8789    8790    8791    8790    8792    8793    8794
    8793    8795    8796    8797    8796    8798    8799    8800
    8799    8801    8802    8803    8802    8804    8805    8806
    8805    8807    8808    8809    8808    8810    8811    8812
    8811    8813    8814    8815    8814    8816    8817    8818
    8817    8819    8820    8821    8820    8822    8823    8824
    8823    8825    8826    8827    8826    8828    8829    8830
    8829    8831    8832    8833    8832    8834    8835    8836
    8835    8837    8838    8839    8838    8840    8841    8842
    8841    8843    8844    8845    8844    8846    8847    8848
    8847    8849    8850    8851    8850    8852    8853    8854
    8853    8855    8856    8857    8856    8858    8859    8860
    8859    8861    8862    8863    8862    8864    8865    8866
    8865    8867    8868    8869    8868    8870    8871    8872
    8871    8873    8874    8875    8874    8876    8877    8878
    8877    8879    8880    8881    8880    8882    8883    8884
    8883    8885    8886    8887    8886    8888    8889    8890
    8889    8891    8892    8893    8892    8894    8895    8896
    8895    8897    8898    8899    8898    8900    8901    8902
    8901    8903    8904    8905    8904    8906    8907    8908
    8907    8909    8910    8911    8910    8912    8913    8914
    8913    8915    8916    8917    8916    8918    8919    8920
    8919    8921    8922    8923    8922    8924    8925    8926
    8925    8927    8928    8929    8928    8930    8931    8932
    8931    8933    8934    8935    8934    8936    8937    8938
    8937    8939    8940    8941    8940    8942    8943    8944
    8943    8945    8946    8947    8946    8948    8949    8950
    8949    8951    8952    8953    8952    8954    8955    8956
    8955    8957    8958    8959    8958    8960    8961    8962
    8961    8963    8964    8965    8964    8966    8967    8968
    8967    8969    8970    8971    8970    8972    8973    8974
    8973    8975    8976    8977    8976    8978    8979    8980
    8979    8981    8982    8983    8982    8984    8985    8986
    8985    8987    8988    8989    8988    8990    8991    8992
    8991    8993    8994    8995    8994    8996    8997    8998
    8997    8999    9000    9001    9000    9002    9003    9004
    9003    9005    9006    9007    9006    9008    9009    9010
    9009    9011    9012    9013    9012    9014    9015    9016
    9015    9017    9018    9019    9018    9020    9021    9022
    9021    9023    9024    9025    9024    9026    9027    9028
    9027    9029    9030    9031    9030    9032    9033    9034
    9033    9035    9036    9037    9036    9038    9039    9040
    9039    9041    9042    9043    9042    9044    9045    9046
    9045    9047    9048    9049    9048    9050    9051    9052
    9051    9053    9054    9055    9054    9056    9057    9058
    9057    9059    9060    9061    9060    9062    9063    9064
    9063    9065    9066    9067    9066    9068    9069    9070
    9069    9071    9072    9073    9072    9074    9075    9076
    9075    9077    9078    9079    9078    9080    9081    9082
    9081    9083    9084    9085    9084    9086    9087    9088
    9087    9089    9090    9091    9090    9092    9093    9094
    9093    9095    9096    9097    9096    9098    9099    9100
    9099    9101    9102    9103    9102    9104    9105    9106
    9105    9107    9108    9109    9108    9110    9111    9112
    9111    9113    9114    9115    9114    9116    9117    9118
    9117    9119    9120    9121    9120    9122    9123    9124
    9123    9125    9126    9127    9126    9128    9129    9130
    9129    9131    9132    9133    9132    9134    9135    9136
    9135    9137    9138    9139    9138    9140    9141    9142
    9141    9143    9144    9145    9144    9146    9147    9148
    9147    9149    9150    9151    9150    9152    9153    9154
    9153    9155    9156    9157    9156    9158    9159    9160
    9159    9161    9162    9163    9162    9164    9165    9166
    9165    9167    9168    9169    9168    9170    9171    9172
    9171    9173    9174    9175    9174    9176    9177    9178
    9177    9179    9180    9181    9180    9182    9183    9184
    9183    9185    9186    9187    9186    9188    9189    9190
    9189    9191    9192    9193    9192    9194    9195    9196
    9195    9197    9198    9199    9198    9200    9201    9202
    9201    9203    9204    9205    9204    9206    9207    9208
    9207    9209    9210    9211    9210    9212    9213    9214
    9213    9215    9216    9217    9216    9218    9219    9220
    9219    9221    9222    9223    9222    9224    9225    9226
    9225    9227    9228    9229    9228    9230    9231    9232
    9231    9233    9234    9235    9234    9236    9237    9238
    9237    9239    9240    9241    9240    9242    9243    9244
    9243    9245    9246    9247    9246    9248    9249    9250
    9249    9251    9252    9253    9252    9254    9255    9256
    9255    9257    9258    9259    9258    9260    9261    9262
    9261    9263    9264    9265    9264    9266    9267    9268
    9267    9269    9270    9271    9270    9272    9273    9274
    9273    9275    9276    9277    9276    9278    9279    9280
    9279    9281    9282    9283    9282    9284    9285    9286
    9285    9287    9288    9289    9288    9290    9291    9292
    9291    9293    9294    9295    9294    9296    9297    9298
    9297    9299    9300    9301    9300    9302    9303    9304
    9303    9305    9306    9307    9306    9308    9309    9310
    9309    9311    9312    9313    9312    9314    9315    9316
    9315    9317    9318    9319    9318    9320    9321    9322
    9321    9323    9324    9325    9324    9326    9327    9328
    9327    9329    9330    9331    9330    9332    9333    9334
    9333    9335    9336    9337    9336    9338    9339    9340
    9339    9341    9342    9343    9342    9344    9345    9346
    9345    9347    9348    9349    9348    9350    9351    9352
    9351    9353    9354    9355    9354    9356    9357    9358
    9357    9359    9360    9361    9360    9362    9363    9364
    9363    9365    9366    9367    9366    9368    9369    9370
    9369    9371    9372    9373    9372    9374    9375    9376
    9375    9377    9378    9379    9378    9380    9381    9382
    9381    9383    9384    9385    9384    9386    9387    9388
    9387    9389    9390    9391    9390    9392    9393    9394
    9393    9395    9396    9397    9396    9398    9399    9400
    9399    9401    9402    9403    9402    9404    9405    9406
    9405    9407    9408    9409    9408    9410    9411    9412
    9411    9413    9414    9415    9414    9416    9417    9418
    9417    9419    9420    9421    9420    9422    9423    9424
    9423    9425    9426    9427    9426    9428    9429    9430
    9429    9431    9432    9433    9432    9434    9435    9436
    9435    9437    9438    9439    9438    9440    9441    9442
    9441    9443    9444    9445    9444    9446    9447    9448
    9447    9449    9450    9451    9450    9452    9453    9454
    9453    9455    9456    9457    9456    9458    9459    9460
    9459    9461    9462    9463    9462    9464    9465    9466
    9465    9467    9468    9469    9468    9470    9471    9472
    9471    9473    9474    9475    9474    9476    9477    9478
    9477    9479    9480    9481    9480    9482    9483    9484
    9483    9485    9486    9487    9486    9488    9489    9490
    9489    9491    9492    9493    9492    9494    9495    9496
    9495    9497    9498    9499    9498    9500    9501    9502
    9501    9503    9504    9505    9504    9506    9507    9508
    9507    9509    9510    9511    9510    9512    9513    9514
    9513    9515    9516    9517    9516    9518    9519    9520
    9519    9521    9522    9523    9522    9524    9525    9526
    9525    9527    9528    9529    9528    9530    9531    9532
    9531    9533    9534    9535    9534    9536    9537    9538
    9537    9539    9540    9541    9540    9542    9543    9544
    9543    9545    9546    9547    9546    9548    9549    9550
    9549    9551    9552    9553    9552    9554    9555    9556
    9555    9557    9558    9559    9558    9560    9561    9562
    9561    9563    9564    9565    9564    9566    9567    9568
    9567    9569    9570    9571    9570    9572    9573    9574
    9573    9575    9576    9577    9576    9578    9579    9580
    9579    9581    9582    9583    9582    9584    9585    9586
    9585    9587    9588    9589    9588    9590    9591    9592
    9591    9593    9594    9595    9594    9596    9597    9598
    9597    9599    9600    9601    9600    9602    9603    9604
    9603    9605    9606    9607    9606    9608    9609    9610
    9609    9611    9612    9613    9612    9614    9615    9616
    9615    9617    9618    9619    9618    9620    9621    9622
    9621    9623    9624    9625    9624    9626    9627    9628
    9627    9629    9630    9631    9630    9632    9633    9634
    9633    9635    9636    9637    9636    9638    9639    9640
    9639    9641    9642    9643    9642    9644    9645    9646
    9645    9647    9648    9649    9648    9650    9651    9652
    9651    9653    9654    9655    9654    9656    9657    9658
    9657    9659    9660    9661    9660    9662    9663    9664
    9663    9665    9666    9667    9666    9668    9669    9670
    9669    9671    9672    9673    9672    9674    9675    9676
    9675    9677    9678    9679    9678    9680    9681    9682
    9681    9683    9684    9685    9684    9686    9687    9688
    9687    9689    9690    9691    9690    9692    9693    9694
    9693    9695    9696    9697    9696    9698    9699    9700
    9699    9701    9702    9703    9702    9704    9705    9706
    9705    9707    9708    9709    9708    9710    9711    9712
    9711    9713    9714    9715    9714    9716    9717    9718
    9717    9719    9720    9721    9720    9722    9723    9724
    9723    9725    9726    9727    9726    9728    9729    9730
    9729    9731    9732    9733    9732    9734    9735    9736
    9735    9737    9738    9739    9738    9740    9741    9742
    9741    9743    9744    9745    9744    9746    9747    9748
    9747    9749    9750    9751    9750    9752    9753    9754
    9753    9755    9756    9757    9756    9758    9759    9760
    9759    9761    9762    9763    9762    9764    9765    9766
    9765    9767    9768    9769    9768    9770    9771    9772
    9771    9773    9774    9775    9774    9776    9777    9778
    9777    9779    9780    9781    9780    9782    9783    9784
    9783    9785    9786    9787    9786    9788    9789    9790
    9789    9791    9792    9793    9792    9794    9795    9796
    9795    9797    9798    9799    9798    9800    9801    9802
    9801    9803    9804    9805    9804    9806    9807    9808
    9807    9809    9810    9811    9810    9812    9813    9814
    9813    9815    9816    9817    9816    9818    9819    9820
    9819    9821    9822    9823    9822    9824    9825    9826
    9825    9827    9828    9829    9828    9830    9831    9832
    9831    9833    9834    9835    9834    9836    9837    9838
    9837    9839    9840    9841    9840    9842    9843    9844
    9843    9845    9846    9847    9846    9848    9849    9850
    9849    9851    9852    9853    9852    9854    9855    9856
    9855    9857    9858    9859    9858    9860    9861    9862
    9861    9863    9864    9865    9864    9866    9867    9868
    9867    9869    9870    9871    9870    9872    9873    9874
    9873    9875    9876    9877    9876    9878    9879    9880
    9879    9881    9882    9883    9882    9884    9885    9886
    9885    9887    9888    9889    9888    9890    9891    9892
    9891    9893    9894    9895    9894    9896    9897    9898
    9897    9899    9900    9901    9900    9902    9903    9904
    9903    9905    9906    9907    9906    9908    9909    9910
    9909    9911    9912    9913    9912    9914    9915    9916
    9915    9917    9918    9919    9918    9920    9921    9922
    9921    9923    9924    9925    9924    9926    9927    9928
    9927    9929    9930    9931    9930    9932    9933    9934
    9933    9935    9936    9937    9936    9938    9939    9940
    9939    9941    9942    9943    9942    9944    9945    9946
    9945    9947    9948    9949    9948    9950    9951    9952
    9951    9953    9954    9955    9954    9956    9957    9958
    9957    9959    9960    9961    9960    9962    9963    9964
    9963    9965    9966    9967    9966    9968    9969    9970
    9969    9971    9972    9973    9972    9974    9975    9976
    9975    9977    9978    9979    9978    9980    9981    9982
    9981    9983    9984    9985    9984    9986    9987    9988
    9987    9989    9990    9991    9990    9992    9993    9994
    9993    9995    9996    9997    9996    9998    9999   10000
    9999   10001   10002   10003   10002   10004   10005   10006
   10005   10007   10008   10009   10008   10010   10011   10012
   10011   10013   10014   10015   10014   10016   10017   10018
   10017   10019   10020   10021   10020   10022   10023   10024
   10023   10025   10026   10027   10026   10028   10029   10030
   10029   10031   10032   10033   10032   10034   10035   10036
   10035   10037   10038   10039   10038   10040   10041   10042
   10041   10043   10044   10045   10044   10046   10047   10048
   10047   10049   10050   10051   10050   10052   10053   10054
   10053   10055   10056   10057   10056   10058   10059   10060
   10059   10061   10062   10063   10062   10064   10065   10066
   10065   10067   10068   10069   10068   10070   10071   10072
   10071   10073   10074   10075   10074   10076   10077   10078
   10077   10079   10080   10081   10080   10082   10083   10084
   10083   10085   10086   10087   10086   10088   10089   10090
   10089   10091   10092   10093   10092   10094   10095   10096
   10095   10097   10098   10099   10098   10100   10101   10102
   10101   10103   10104   10105   10104   10106   10107   10108
   10107   10109   10110   10111   10110   10112   10113   10114
   10113   10115   10116   10117   10116   10118   10119   10120
   10119   10121   10122   10123   10122   10124   10125   10126
   10125   10127   10128   10129   10128   10130   10131   10132
   10131   10133   10134   10135   10134   10136   10137   10138
   10137   10139   10140   10141   10140   10142   10143   10144
   10143   10145   10146   10147   10146   10148   10149   10150
   10149   10151   10152   10153   10152   10154   10155   10156
   10155   10157   10158   10159   10158   10160   10161   10162
   10161   10163   10164   10165   10164   10166   10167   10168
   10167   10169   10170   10171   10170   10172   10173   10174
   10173   10175   10176   10177   10176   10178   10179   10180
   10179   10181   10182   10183   10182   10184   10185   10186
   10185   10187   10188   10189   10188   10190   10191   10192
   10191   10193   10194   10195   10194   10196   10197   10198
   10197   10199   10200   10201   10200   10202   10203   10204
   10203   10205   10206   10207   10206   10208   10209   10210
   10209   10211   10212   10213   10212   10214   10215   10216
   10215   10217   10218   10219   10218   10220   10221   10222
   10221   10223   10224   10225   10224   10226   10227   10228
   10227   10229   10230   10231   10230   10232   10233   10234
   10233   10235   10236   10237   10236   10238   10239   10240
   10239   10241   10242   10243   10242   10244   10245   10246
   10245   10247   10248   10249   10248   10250   10251   10252
   10251   10253   10254   10255   10254   10256   10257   10258
   10257   10259   10260   10261   10260   10262   10263   10264
   10263   10265   10266   10267   10266   10268   10269   10270
   10269   10271   10272   10273   10272   10274   10275   10276
   10275   10277   10278   10279   10278   10280   10281   10282
   10281   10283   10284   10285   10284   10286   10287   10288
   10287   10289   10290   10291   10290   10292   10293   10294
   10293   10295   10296   10297   10296   10298   10299   10300
   10299   10301   10302   10303   10302   10304   10305   10306
   10305   10307   10308   10309   10308   10310   10311   10312
   10311   10313   10314   10315   10314   10316   10317   10318
   10317   10319   10320   10321   10320   10322   10323   10324
   10323   10325   10326   10327   10326   10328   10329   10330
   10329   10331   10332   10333   10332   10334   10335   10336
   10335   10337   10338   10339   10338   10340   10341   10342
   10341   10343   10344   10345   10344   10346   10347   10348
   10347   10349   10350   10351   10350   10352   10353   10354
   10353   10355   10356   10357   10356   10358   10359   10360
   10359   10361   10362   10363   10362   10364   10365   10366
   10365   10367   10368   10369   10368   10370   10371   10372
   10371   10373   10374   10375   10374   10376   10377   10378
   10377   10379   10380   10381   10380   10382   10383   10384
   10383   10385   10386   10387   10386   10388   10389   10390
   10389   10391   10392   10393   10392   10394   10395   10396
   10395   10397   10398   10399   10398   10400   10401   10402
   10401   10403   10404   10405   10404   10406   10407   10408
   10407   10409   10410   10411   10410   10412   10413   10414
   10413   10415   10416   10417   10416   10418   10419   10420
   10419   10421   10422   10423   10422   10424   10425   10426
   10425   10427   10428   10429   10428   10430   10431   10432
   10431   10433   10434   10435   10434   10436   10437   10438
   10437   10439   10440   10441   10440   10442   10443   10444
   10443   10445   10446   10447   10446   10448   10449   10450
   10449   10451   10452   10453   10452   10454   10455   10456
   10455   10457   10458   10459   10458   10460   10461   10462
   10461   10463   10464   10465   10464   10466   10467   10468
   10467   10469   10470   10471   10470   10472   10473   10474
   10473   10475   10476   10477   10476   10478   10479   10480
   10479   10481   10482   10483   10482   10484   10485   10486
   10485   10487   10488   10489   10488   10490   10491   10492
   10491   10493   10494   10495   10494   10496   10497   10498
   10497   10499   10500   10501   10500   10502   10503   10504
   10503   10505   10506   10507   10506   10508   10509   10510
   10509   10511   10512   10513   10512   10514   10515   10516
   10515   10517   10518   10519   10518   10520   10521   10522
   10521   10523   10524   10525   10524   10526   10527   10528
   10527   10529   10530   10531   10530   10532   10533   10534
   10533   10535   10536   10537   10536   10538   10539   10540
   10539   10541   10542   10543   10542   10544   10545   10546
   10545   10547   10548   10549   10548   10550   10551   10552
   10551   10553   10554   10555   10554   10556   10557   10558
   10557   10559   10560   10561   10560   10562   10563   10564
   10563   10565   10566   10567   10566   10568   10569   10570
   10569   10571   10572   10573   10572   10574   10575   10576
   10575   10577   10578   10579   10578   10580   10581   10582
   10581   10583   10584   10585   10584   10586   10587   10588
   10587   10589   10590   10591   10590   10592   10593   10594
   10593   10595   10596   10597   10596   10598   10599   10600
   10599   10601   10602   10603   10602   10604   10605   10606
   10605   10607   10608   10609   10608   10610   10611   10612
   10611   10613   10614   10615   10614   10616   10617   10618
   10617   10619   10620   10621   10620   10622   10623   10624
   10623   10625   10626   10627   10626   10628   10629   10630
   10629   10631   10632   10633   10632   10634   10635   10636
   10635   10637   10638   10639   10638   10640   10641   10642
   10641   10643   10644   10645   10644   10646   10647   10648
   10647   10649   10650   10651   10650   10652   10653   10654
   10653   10655   10656   10657   10656   10658   10659   10660
   10659   10661   10662   10663   10662   10664   10665   10666
   10665   10667   10668   10669   10668   10670   10671   10672
   10671   10673   10674   10675   10674   10676   10677   10678
   10677   10679   10680   10681   10680   10682   10683   10684
   10683   10685   10686   10687   10686   10688   10689   10690
   10689   10691   10692   10693   10692   10694   10695   10696
   10695   10697   10698   10699   10698   10700   10701   10702
   10701   10703   10704   10705   10704   10706   10707   10708
   10707   10709   10710   10711   10710   10712   10713   10714
   10713   10715   10716   10717   10716   10718   10719   10720
   10719   10721   10722   10723   10722   10724   10725   10726
   10725   10727   10728   10729   10728   10730   10731   10732
   10731   10733   10734   10735   10734   10736   10737   10738
   10737   10739   10740   10741   10740   10742   10743   10744
   10743   10745   10746   10747   10746   10748   10749   10750
   10749   10751   10752   10753   10752   10754   10755   10756
   10755   10757   10758   10759   10758   10760   10761   10762
   10761   10763   10764   10765   10764   10766   10767   10768
   10767   10769   10770   10771   10770   10772   10773   10774
   10773   10775   10776   10777   10776   10778   10779   10780
   10779   10781   10782   10783   10782   10784   10785   10786
   10785   10787   10788   10789   10788   10790   10791   10792
   10791   10793   10794   10795   10794   10796   10797   10798
   10797   10799   10800   10801   10800   10802   10803   10804
   10803   10805   10806   10807   10806   10808   10809   10810
   10809   10811   10812   10813   10812   10814   10815   10816
   10815   10817   10818   10819   10818   10820   10821   10822
   10821   10823   10824   10825   10824   10826   10827   10828
   10827   10829   10830   10831   10830   10832   10833   10834
   10833   10835   10836   10837   10836   10838   10839   10840
   10839   10841   10842   10843   10842   10844   10845   10846
   10845   10847   10848   10849   10848   10850   10851   10852
   10851   10853   10854   10855   10854   10856   10857   10858
   10857   10859   10860   10861   10860   10862   10863   10864
   10863   10865   10866   10867   10866   10868   10869   10870
   10869   10871   10872   10873   10872   10874   10875   10876
   10875   10877   10878   10879   10878   10880   10881   10882
   10881   10883   10884   10885   10884   10886   10887   10888
   10887   10889   10890   10891   10890   10892   10893   10894
   10893   10895   10896   10897   10896   10898   10899   10900
   10899   10901   10902   10903   10902   10904   10905   10906
   10905   10907   10908   10909   10908   10910   10911   10912
   10911   10913   10914   10915   10914   10916   10917   10918
   10917   10919   10920   10921   10920   10922   10923   10924
   10923   10925   10926   10927   10926   10928   10929   10930
   10929   10931   10932   10933   10932   10934   10935   10936
   10935   10937   10938   10939   10938   10940   10941   10942
   10941   10943   10944   10945   10944   10946   10947   10948
   10947   10949   10950   10951   10950   10952   10953   10954
   10953   10955   10956   10957   10956   10958   10959   10960
   10959   10961   10962   10963   10962   10964   10965   10966
   10965   10967   10968   10969   10968   10970   10971   10972
   10971   10973   10974   10975   10974   10976   10977   10978
   10977   10979   10980   10981   10980   10982   10983   10984
   10983   10985   10986   10987   10986   10988   10989   10990
   10989   10991   10992   10993   10992   10994   10995   10996
   10995   10997   10998   10999   10998   11000   11001   11002
   11001   11003   11004   11005   11004   11006   11007   11008
   11007   11009   11010   11011   11010   11012   11013   11014
   11013   11015   11016   11017   11016   11018   11019   11020
   11019   11021   11022   11023   11022   11024   11025   11026
   11025   11027   11028   11029   11028   11030   11031   11032
   11031   11033   11034   11035   11034   11036   11037   11038
   11037   11039   11040   11041   11040   11042   11043   11044
   11043   11045   11046   11047   11046   11048   11049   11050
   11049   11051   11052   11053   11052   11054   11055   11056
   11055   11057   11058   11059   11058   11060   11061   11062
   11061   11063   11064   11065   11064   11066   11067   11068
   11067   11069   11070   11071   11070   11072   11073   11074
   11073   11075   11076   11077   11076   11078   11079   11080
   11079   11081   11082   11083   11082   11084   11085   11086
   11085   11087   11088   11089   11088   11090   11091   11092
   11091   11093   11094   11095   11094   11096   11097   11098
   11097   11099   11100   11101   11100   11102   11103   11104
   11103   11105   11106   11107   11106   11108   11109   11110
   11109   11111   11112   11113   11112   11114   11115   11116
   11115   11117   11118   11119   11118   11120   11121   11122
   11121   11123   11124   11125   11124   11126   11127   11128
   11127   11129   11130   11131   11130   11132   11133   11134
   11133   11135   11136   11137   11136   11138   11139   11140
   11139   11141   11142   11143   11142   11144   11145   11146
   11145   11147   11148   11149   11148   11150   11151   11152
   11151   11153   11154   11155   11154   11156   11157   11158
   11157   11159   11160   11161   11160   11162   11163   11164
   11163   11165   11166   11167   11166   11168   11169   11170
   11169   11171   11172   11173   11172   11174   11175   11176
   11175   11177   11178   11179   11178   11180   11181   11182
   11181   11183   11184   11185   11184   11186   11187   11188
   11187   11189   11190   11191   11190   11192   11193   11194
   11193   11195   11196   11197   11196   11198   11199   11200
   11199   11201   11202   11203   11202   11204   11205   11206
   11205   11207   11208   11209   11208   11210   11211   11212
   11211   11213   11214   11215   11214   11216   11217   11218
   11217   11219   11220   11221   11220   11222   11223   11224
   11223   11225   11226   11227   11226   11228   11229   11230
   11229   11231   11232   11233   11232   11234   11235   11236
   11235   11237   11238   11239   11238   11240   11241   11242
   11241   11243   11244   11245   11244   11246   11247   11248
   11247   11249   11250   11251   11250   11252   11253   11254
   11253   11255   11256   11257   11256   11258   11259   11260
   11259   11261   11262   11263   11262   11264   11265   11266
   11265   11267   11268   11269   11268   11270   11271   11272
   11271   11273   11274   11275   11274   11276   11277   11278
   11277   11279   11280   11281   11280   11282   11283   11284
   11283   11285   11286   11287   11286   11288   11289   11290
   11289   11291   11292   11293   11292   11294   11295   11296
   11295   11297   11298   11299   11298   11300   11301   11302
   11301   11303   11304   11305   11304   11306   11307   11308
   11307   11309   11310   11311   11310   11312   11313   11314
   11313   11315   11316   11317   11316   11318   11319   11320
   11319   11321   11322   11323   11322   11324   11325   11326
   11325   11327   11328   11329   11328   11330   11331   11332
   11331   11333   11334   11335   11334   11336   11337   11338
   11337   11339   11340   11341   11340   11342   11343   11344
   11343   11345   11346   11347   11346   11348   11349   11350
   11349   11351   11352   11353   11352   11354   11355   11356
   11355   11357   11358   11359   11358   11360   11361   11362
   11361   11363   11364   11365   11364   11366   11367   11368
   11367   11369   11370   11371   11370   11372   11373   11374
   11373   11375   11376   11377   11376   11378   11379   11380
   11379   11381   11382   11383   11382   11384   11385   11386
   11385   11387   11388   11389   11388   11390   11391   11392
   11391   11393   11394   11395   11394   11396   11397   11398
   11397   11399   11400   11401   11400   11402   11403   11404
   11403   11405   11406   11407   11406   11408   11409   11410
   11409   11411   11412   11413   11412   11414   11415   11416
   11415   11417   11418   11419   11418   11420   11421   11422
   11421   11423   11424   11425   11424   11426   11427   11428
   11427   11429   11430   11431   11430   11432   11433   11434
   11433   11435   11436   11437   11436   11438   11439   11440
   11439   11441   11442   11443   11442   11444   11445   11446
   11445   11447   11448   11449   11448   11450   11451   11452
   11451   11453   11454   11455   11454   11456   11457   11458
   11457   11459   11460   11461   11460   11462   11463   11464
   11463   11465   11466   11467   11466   11468   11469   11470
   11469   11471   11472   11473   11472   11474   11475   11476
   11475   11477   11478   11479   11478   11480   11481   11482
   11481   11483   11484   11485   11484   11486   11487   11488
   11487   11489   11490   11491   11490   11492   11493   11494
   11493   11495   11496   11497   11496   11498   11499   11500
   11499   11501   11502   11503   11502   11504   11505   11506
   11505   11507   11508   11509   11508   11510   11511   11512
   11511   11513   11514   11515   11514   11516   11517   11518
   11517   11519   11520   11521   11520   11522   11523   11524
   11523   11525   11526   11527   11526   11528   11529   11530
   11529   11531   11532   11533   11532   11534   11535   11536
   11535   11537   11538   11539   11538   11540   11541   11542
   11541   11543   11544   11545   11544   11546   11547   11548
   11547   11549   11550   11551   11550   11552   11553   11554
   11553   11555   11556   11557   11556   11558   11559   11560
   11559   11561   11562   11563   11562   11564   11565   11566
   11565   11567   11568   11569   11568   11570   11571   11572
   11571   11573   11574   11575   11574   11576   11577   11578
   11577   11579   11580   11581   11580   11582   11583   11584
   11583   11585   11586   11587   11586   11588   11589   11590
   11589   11591   11592   11593   11592   11594   11595   11596
   11595   11597   11598   11599   11598   11600   11601   11602
   11601   11603   11604   11605   11604   11606   11607   11608
   11607   11609   11610   11611   11610   11612   11613   11614
   11613   11615   11616   11617   11616   11618   11619   11620
   11619   11621   11622   11623   11622   11624   11625   11626
   11625   11627   11628   11629   11628   11630   11631   11632
   11631   11633   11634   11635   11634   11636   11637   11638
   11637   11639   11640   11641   11640   11642   11643   11644
   11643   11645   11646   11647   11646   11648   11649   11650
   11649   11651   11652   11653   11652   11654   11655   11656
   11655   11657   11658   11659   11658   11660   11661   11662
   11661   11663   11664   11665   11664   11666   11667   11668
   11667   11669   11670   11671   11670   11672   11673   11674
   11673   11675   11676   11677   11676   11678   11679   11680
   11679   11681   11682   11683   11682   11684   11685   11686
   11685   11687   11688   11689   11688   11690   11691   11692
   11691   11693   11694   11695   11694   11696   11697   11698
   11697   11699   11700   11701   11700   11702   11703   11704
   11703   11705   11706   11707   11706   11708   11709   11710
   11709   11711   11712   11713   11712   11714   11715   11716
   11715   11717   11718   11719   11718   11720   11721   11722
   11721   11723   11724   11725   11724   11726   11727   11728
   11727   11729   11730   11731   11730   11732   11733   11734
   11733   11735   11736   11737   11736   11738   11739   11740
   11739   11741   11742   11743   11742   11744   11745   11746
   11745   11747   11748   11749   11748   11750   11751   11752
   11751   11753   11754   11755   11754   11756   11757   11758
   11757   11759   11760   11761   11760   11762   11763   11764
   11763   11765   11766   11767   11766   11768   11769   11770
   11769   11771   11772   11773   11772   11774   11775   11776
   11775   11777   11778   11779   11778   11780   11781   11782
   11781   11783   11784   11785   11784   11786   11787   11788
   11787   11789   11790   11791   11790   11792   11793   11794
   11793   11795   11796   11797   11796   11798   11799   11800
   11799   11801   11802   11803   11802   11804   11805   11806
   11805   11807   11808   11809   11808   11810   11811   11812
   11811   11813   11814   11815   11814   11816   11817   11818
   11817   11819   11820   11821   11820   11822   11823   11824
   11823   11825   11826   11827   11826   11828   11829   11830
   11829   11831   11832   11833   11832   11834   11835   11836
   11835   11837   11838   11839   11838   11840   11841   11842
   11841   11843   11844   11845   11844   11846   11847   11848
   11847   11849   11850   11851   11850   11852   11853   11854
   11853   11855   11856   11857   11856   11858   11859   11860
   11859   11861   11862   11863   11862   11864   11865   11866
   11865   11867   11868   11869   11868   11870   11871   11872
   11871   11873   11874   11875   11874   11876   11877   11878
   11877   11879   11880   11881   11880   11882   11883   11884
   11883   11885   11886   11887   11886   11888   11889   11890
   11889   11891   11892   11893   11892   11894   11895   11896
   11895   11897   11898   11899   11898   11900   11901   11902
   11901   11903   11904   11905   11904   11906   11907   11908
   11907   11909   11910   11911   11910   11912   11913   11914
   11913   11915   11916   11917   11916   11918   11919   11920
   11919   11921   11922   11923   11922   11924   11925   11926
   11925   11927   11928   11929   11928   11930   11931   11932
   11931   11933   11934   11935   11934   11936   11937   11938
   11937   11939   11940   11941   11940   11942   11943   11944
   11943   11945   11946   11947   11946   11948   11949   11950
   11949   11951   11952   11953   11952   11954   11955   11956
   11955   11957   11958   11959   11958   11960   11961   11962
   11961   11963   11964   11965   11964   11966   11967   11968
   11967   11969   11970   11971   11970   11972   11973   11974
   11973   11975   11976   11977   11976   11978   11979   11980
   11979   11981   11982   11983   11982   11984   11985   11986
   11985   11987   11988   11989   11988   11990   11991   11992
   11991   11993   11994   11995   11994   11996   11997   11998
   11997   11999   12000   12001   12000   12002   12003   12004
   12003   12005   12006   12007   12006   12008   12009   12010
   12009   12011   12012   12013   12012   12014   12015   12016
   12015   12017   12018   12019   12018   12020   12021   12022
   12021   12023   12024   12025   12024   12026   12027   12028
   12027   12029   12030   12031   12030   12032   12033   12034
   12033   12035   12036   12037   12036   12038   12039   12040
   12039   12041   12042   12043   12042   12044   12045   12046
   12045   12047   12048   12049   12048   12050   12051   12052
   12051   12053   12054   12055   12054   12056   12057   12058
   12057   12059   12060   12061   12060   12062   12063   12064
   12063   12065   12066   12067   12066   12068   12069   12070
   12069   12071   12072   12073   12072   12074   12075   12076
   12075   12077   12078   12079   12078   12080   12081   12082
   12081   12083   12084   12085   12084   12086   12087   12088
   12087   12089   12090   12091   12090   12092   12093   12094
   12093   12095   12096   12097   12096   12098   12099   12100
   12099   12101   12102   12103   12102   12104   12105   12106
   12105   12107   12108   12109   12108   12110   12111   12112
   12111   12113   12114   12115   12114   12116   12117   12118
   12117   12119   12120   12121   12120   12122   12123   12124
   12123   12125   12126   12127   12126   12128   12129   12130
   12129   12131   12132   12133   12132   12134   12135   12136
   12135   12137   12138   12139   12138   12140   12141   12142
   12141   12143   12144   12145   12144   12146   12147   12148
   12147   12149   12150   12151   12150   12152   12153   12154
   12153   12155   12156   12157   12156   12158   12159   12160
   12159   12161   12162   12163   12162   12164   12165   12166
   12165   12167   12168   12169   12168   12170   12171   12172
   12171   12173   12174   12175   12174   12176   12177   12178
   12177   12179   12180   12181   12180   12182   12183   12184
   12183   12185   12186   12187   12186   12188   12189   12190
   12189   12191   12192   12193   12192   12194   12195   12196
   12195   12197   12198   12199   12198   12200   12201   12202
   12201   12203   12204   12205   12204   12206   12207   12208
   12207   12209   12210   12211   12210   12212   12213   12214
   12213   12215   12216   12217   12216   12218   12219   12220
   12219   12221   12222   12223   12222   12224   12225   12226
   12225   12227   12228   12229   12228   12230   12231   12232
   12231   12233   12234   12235   12234   12236   12237   12238
   12237   12239   12240   12241   12240   12242   12243   12244
   12243   12245   12246   12247   12246   12248   12249   12250
   12249   12251   12252   12253   12252   12254   12255   12256
   12255   12257   12258   12259   12258   12260   12261   12262
   12261   12263   12264   12265   12264   12266   12267   12268
   12267   12269   12270   12271   12270   12272   12273   12274
   12273   12275   12276   12277   12276   12278   12279   12280
   12279   12281   12282   12283   12282   12284   12285   12286
   12285   12287   12288   12289   12288   12290   12291   12292
   12291   12293   12294   12295   12294   12296   12297   12298
   12297   12299   12300   12301   12300   12302   12303   12304
   12303   12305   12306   12307   12306   12308   12309   12310
   12309   12311   12312   12313   12312   12314   12315   12316
   12315   12317   12318   12319   12318   12320   12321   12322
   12321   12323   12324   12325   12324   12326   12327   12328
   12327   12329   12330   12331   12330   12332   12333   12334
   12333   12335   12336   12337   12336   12338   12339   12340
   12339   12341   12342   12343   12342   12344   12345   12346
   12345   12347   12348   12349   12348   12350   12351   12352
   12351   12353   12354   12355   12354   12356   12357   12358
   12357   12359   12360   12361   12360   12362   12363   12364
   12363   12365   12366   12367   12366   12368   12369   12370
   12369   12371   12372   12373   12372   12374   12375   12376
   12375   12377   12378   12379   12378   12380   12381   12382
   12381   12383   12384   12385   12384   12386   12387   12388
   12387   12389   12390   12391   12390   12392   12393   12394
   12393   12395   12396   12397   12396   12398   12399   12400
   12399   12401   12402   12403   12402   12404   12405   12406
   12405   12407   12408   12409   12408   12410   12411   12412
   12411   12413   12414   12415   12414   12416   12417   12418
   12417   12419   12420   12421   12420   12422   12423   12424
   12423   12425   12426   12427   12426   12428   12429   12430
   12429   12431   12432   12433   12432   12434   12435   12436
   12435   12437   12438   12439   12438   12440   12441   12442
   12441   12443   12444   12445   12444   12446   12447   12448
   12447   12449   12450   12451   12450   12452   12453   12454
   12453   12455   12456   12457   12456   12458   12459   12460
   12459   12461   12462   12463   12462   12464   12465   12466
   12465   12467   12468   12469   12468   12470   12471   12472
   12471   12473   12474   12475   12474   12476   12477   12478
   12477   12479   12480   12481   12480   12482   12483   12484
   12483   12485   12486   12487   12486   12488   12489   12490
   12489   12491   12492   12493   12492   12494   12495   12496
   12495   12497   12498   12499   12498   12500   12501   12502
   12501   12503   12504   12505   12504   12506   12507   12508
   12507   12509   12510   12511   12510   12512   12513   12514
   12513   12515   12516   12517   12516   12518   12519   12520
   12519   12521   12522   12523   12522   12524   12525   12526
   12525   12527   12528   12529   12528   12530   12531   12532
   12531   12533   12534   12535   12534   12536   12537   12538
   12537   12539   12540   12541   12540   12542   12543   12544
   12543   12545   12546   12547   12546   12548   12549   12550
   12549   12551   12552   12553   12552   12554   12555   12556
   12555   12557   12558   12559   12558   12560   12561   12562
   12561   12563   12564   12565   12564   12566   12567   12568
   12567   12569   12570   12571   12570   12572   12573   12574
   12573   12575   12576   12577   12576   12578   12579   12580
   12579   12581   12582   12583   12582   12584   12585   12586
   12585   12587   12588   12589   12588   12590   12591   12592
   12591   12593   12594   12595   12594   12596   12597   12598
   12597   12599   12600   12601   12600   12602   12603   12604
   12603   12605   12606   12607   12606   12608   12609   12610
   12609   12611   12612   12613   12612   12614   12615   12616
   12615   12617   12618   12619   12618   12620   12621   12622
   12621   12623   12624   12625   12624   12626   12627   12628
   12627   12629   12630   12631   12630   12632   12633   12634
   12633   12635   12636   12637   12636   12638   12639   12640
   12639   12641   12642   12643   12642   12644   12645   12646
   12645   12647   12648   12649   12648   12650   12651   12652
   12651   12653   12654   12655   12654   12656   12657   12658
   12657   12659   12660   12661   12660   12662   12663   12664
   12663   12665   12666   12667   12666   12668   12669   12670
   12669   12671   12672   12673   12672   12674   12675   12676
   12675   12677   12678   12679   12678   12680   12681   12682
   12681   12683   12684   12685   12684   12686   12687   12688
   12687   12689   12690   12691   12690   12692   12693   12694
   12693   12695   12696   12697   12696   12698   12699   12700
   12699   12701   12702   12703   12702   12704   12705   12706
   12705   12707   12708   12709   12708   12710   12711   12712
   12711   12713   12714   12715   12714   12716   12717   12718
   12717   12719   12720   12721   12720   12722   12723   12724
   12723   12725   12726   12727   12726   12728   12729   12730
   12729   12731   12732   12733   12732   12734   12735   12736
   12735   12737   12738   12739   12738   12740   12741   12742
   12741   12743   12744   12745   12744   12746   12747   12748
   12747   12749   12750   12751   12750   12752   12753   12754
   12753   12755   12756   12757   12756   12758   12759   12760
   12759   12761   12762   12763   12762   12764   12765   12766
   12765   12767   12768   12769   12768   12770   12771   12772
   12771   12773   12774   12775   12774   12776   12777   12778
   12777   12779   12780   12781   12780   12782   12783   12784
   12783   12785   12786   12787   12786   12788   12789   12790
   12789   12791   12792   12793   12792   12794   12795   12796
   12795   12797   12798   12799   12798   12800   12801   12802
   12801   12803   12804   12805   12804   12806   12807   12808
   12807   12809   12810   12811   12810   12812   12813   12814
   12813   12815   12816   12817   12816   12818   12819   12820
   12819   12821   12822   12823   12822   12824   12825   12826
   12825   12827   12828   12829   12828   12830   12831   12832
   12831   12833   12834   12835   12834   12836   12837   12838
   12837   12839   12840   12841   12840   12842   12843   12844
   12843   12845   12846   12847   12846   12848   12849   12850
   12849   12851   12852   12853   12852   12854   12855   12856
   12855   12857   12858   12859   12858   12860   12861   12862
   12861   12863   12864   12865   12864   12866   12867   12868
   12867   12869   12870   12871   12870   12872   12873   12874
   12873   12875   12876   12877   12876   12878   12879   12880
   12879   12881   12882   12883   12882   12884   12885   12886
   12885   12887   12888   12889   12888   12890   12891   12892
   12891   12893   12894   12895   12894   12896   12897   12898
   12897   12899   12900   12901   12900   12902   12903   12904
   12903   12905   12906   12907   12906   12908   12909   12910
   12909   12911   12912   12913   12912   12914   12915   12916
   12915   12917   12918   12919   12918   12920   12921   12922
   12921   12923   12924   12925   12924   12926   12927   12928
   12927   12929   12930   12931   12930   12932   12933   12934
   12933   12935   12936   12937   12936   12938   12939   12940
   12939   12941   12942   12943   12942   12944   12945   12946
   12945   12947   12948   12949   12948   12950   12951   12952
   12951   12953   12954   12955   12954   12956   12957   12958
   12957   12959   12960   12961   12960   12962   12963   12964
   12963   12965   12966   12967   12966   12968   12969   12970
   12969   12971   12972   12973   12972   12974   12975   12976
   12975   12977   12978   12979   12978   12980   12981   12982
   12981   12983   12984   12985   12984   12986   12987   12988
   12987   12989   12990   12991   12990   12992   12993   12994
   12993   12995   12996   12997   12996   12998   12999   13000
   12999   13001   13002   13003   13002   13004   13005   13006
   13005   13007   13008   13009   13008   13010   13011   13012
   13011   13013   13014   13015   13014   13016   13017   13018
   13017   13019   13020   13021   13020   13022   13023   13024
   13023   13025   13026   13027   13026   13028   13029   13030
   13029   13031   13032   13033   13032   13034   13035   13036
   13035   13037   13038   13039   13038   13040   13041   13042
   13041   13043   13044   13045   13044   13046   13047   13048
   13047   13049   13050   13051   13050   13052   13053   13054
   13053   13055   13056   13057   13056   13058   13059   13060
   13059   13061   13062   13063   13062   13064   13065   13066
   13065   13067   13068   13069   13068   13070   13071   13072
   13071   13073   13074   13075   13074   13076   13077   13078
   13077   13079   13080   13081   13080   13082   13083   13084
   13083   13085   13086   13087   13086   13088   13089   13090
   13089   13091   13092   13093   13092   13094   13095   13096
   13095   13097   13098   13099   13098   13100   13101   13102
   13101   13103   13104   13105   13104   13106   13107   13108
   13107   13109   13110   13111   13110   13112   13113   13114
   13113   13115   13116   13117   13116   13118   13119   13120
   13119   13121   13122   13123   13122   13124   13125   13126
   13125   13127   13128   13129   13128   13130   13131   13132
   13131   13133   13134   13135   13134   13136   13137   13138
   13137   13139   13140   13141   13140   13142   13143   13144
   13143   13145   13146   13147   13146   13148   13149   13150
   13149   13151   13152   13153   13152   13154   13155   13156
   13155   13157   13158   13159   13158   13160   13161   13162
   13161   13163   13164   13165   13164   13166   13167   13168
   13167   13169   13170   13171   13170   13172   13173   13174
   13173   13175   13176   13177   13176   13178   13179   13180
   13179   13181   13182   13183   13182   13184   13185   13186
   13185   13187   13188   13189   13188   13190   13191   13192
   13191   13193   13194   13195   13194   13196   13197   13198
   13197   13199   13200   13201   13200   13202   13203   13204
   13203   13205   13206   13207   13206   13208   13209   13210
   13209   13211   13212   13213   13212   13214   13215   13216
   13215   13217   13218   13219   13218   13220   13221   13222
   13221   13223   13224   13225   13224   13226   13227   13228
   13227   13229   13230   13231   13230   13232   13233   13234
   13233   13235   13236   13237   13236   13238   13239   13240
   13239   13241   13242   13243   13242   13244   13245   13246
   13245   13247   13248   13249   13248   13250   13251   13252
   13251   13253   13254   13255   13254   13256   13257   13258
   13257   13259   13260   13261   13260   13262   13263   13264
   13263   13265   13266   13267   13266   13268   13269   13270
   13269   13271   13272   13273   13272   13274   13275   13276
   13275   13277   13278   13279   13278   13280   13281   13282
   13281   13283   13284   13285   13284   13286   13287   13288
   13287   13289   13290   13291   13290   13292   13293   13294
   13293   13295   13296   13297   13296   13298   13299   13300
   13299   13301   13302   13303   13302   13304   13305   13306
   13305   13307   13308   13309   13308   13310   13311   13312
   13311   13313   13314   13315   13314   13316   13317   13318
   13317   13319   13320   13321   13320   13322   13323   13324
   13323   13325   13326   13327   13326   13328   13329   13330
   13329   13331   13332   13333   13332   13334   13335   13336
   13335   13337   13338   13339   13338   13340   13341   13342
   13341   13343   13344   13345   13344   13346   13347   13348
   13347   13349   13350   13351   13350   13352   13353   13354
   13353   13355   13356   13357   13356   13358   13359   13360
   13359   13361   13362   13363   13362   13364   13365   13366
   13365   13367   13368   13369   13368   13370   13371   13372
   13371   13373   13374   13375   13374   13376   13377   13378
   13377   13379   13380   13381   13380   13382   13383   13384
   13383   13385   13386   13387   13386   13388   13389   13390
   13389   13391   13392   13393   13392   13394   13395   13396
   13395   13397   13398   13399   13398   13400   13401   13402
   13401   13403   13404   13405   13404   13406   13407   13408
   13407   13409   13410   13411   13410   13412   13413   13414
   13413   13415   13416   13417   13416   13418   13419   13420
   13419   13421   13422   13423   13422   13424   13425   13426
   13425   13427   13428   13429   13428   13430   13431   13432
   13431   13433   13434   13435   13434   13436   13437   13438
   13437   13439   13440   13441   13440   13442   13443   13444
   13443   13445   13446   13447   13446   13448   13449   13450
   13449   13451   13452   13453   13452   13454   13455   13456
   13455   13457   13458   13459   13458   13460   13461   13462
   13461   13463   13464   13465   13464   13466   13467   13468
   13467   13469   13470   13471   13470   13472   13473   13474
   13473   13475   13476   13477   13476   13478   13479   13480
   13479   13481   13482   13483   13482   13484   13485   13486
   13485   13487   13488   13489   13488   13490   13491   13492
   13491   13493   13494   13495   13494   13496   13497   13498
   13497   13499   13500   13501   13500   13502   13503   13504
   13503   13505   13506   13507   13506   13508   13509   13510
   13509   13511   13512   13513   13512   13514   13515   13516
   13515   13517   13518   13519   13518   13520   13521   13522
   13521   13523   13524   13525   13524   13526   13527   13528
   13527   13529   13530   13531   13530   13532   13533   13534
   13533   13535   13536   13537   13536   13538   13539   13540
   13539   13541   13542   13543   13542   13544   13545   13546
   13545   13547   13548   13549   13548   13550   13551   13552
   13551   13553   13554   13555   13554   13556   13557   13558
   13557   13559   13560   13561   13560   13562   13563   13564
   13563   13565   13566   13567   13566   13568   13569   13570
   13569   13571   13572   13573   13572   13574   13575   13576
   13575   13577   13578   13579   13578   13580   13581   13582
   13581   13583   13584   13585   13584   13586   13587   13588
   13587   13589   13590   13591   13590   13592   13593   13594
   13593   13595   13596   13597   13596   13598   13599   13600
   13599   13601   13602   13603   13602   13604   13605   13606
   13605   13607   13608   13609   13608   13610   13611   13612
   13611   13613   13614   13615   13614   13616   13617   13618
   13617   13619   13620   13621   13620   13622   13623   13624
   13623   13625   13626   13627   13626   13628   13629   13630
   13629   13631   13632   13633   13632   13634   13635   13636
   13635   13637   13638   13639   13638   13640   13641   13642
   13641   13643   13644   13645   13644   13646   13647   13648
   13647   13649   13650   13651   13650   13652   13653   13654
   13653   13655   13656   13657   13656   13658   13659   13660
   13659   13661   13662   13663   13662   13664   13665   13666
   13665   13667   13668   13669   13668   13670   13671   13672
   13671   13673   13674   13675   13674   13676   13677   13678
   13677   13679   13680   13681   13680   13682   13683   13684
   13683   13685   13686   13687   13686   13688   13689   13690
   13689   13691   13692   13693   13692   13694   13695   13696
   13695   13697   13698   13699   13698   13700   13701   13702
   13701   13703   13704   13705   13704   13706   13707   13708
   13707   13709   13710   13711   13710   13712   13713   13714
   13713   13715   13716   13717   13716   13718   13719   13720
   13719   13721   13722   13723   13722   13724   13725   13726
   13725   13727   13728   13729   13728   13730   13731   13732
   13731   13733   13734   13735   13734   13736   13737   13738
   13737   13739   13740   13741   13740   13742   13743   13744
   13743   13745   13746   13747   13746   13748   13749   13750
   13749   13751   13752   13753   13752   13754   13755   13756
   13755   13757   13758   13759   13758   13760   13761   13762
   13761   13763   13764   13765   13764   13766   13767   13768
   13767   13769   13770   13771   13770   13772   13773   13774
   13773   13775   13776   13777   13776   13778   13779   13780
   13779   13781   13782   13783   13782   13784   13785   13786
   13785   13787   13788   13789   13788   13790   13791   13792
   13791   13793   13794   13795   13794   13796   13797   13798
   13797   13799   13800   13801   13800   13802   13803   13804
   13803   13805   13806   13807   13806   13808   13809   13810
   13809   13811   13812   13813   13812   13814   13815   13816
   13815   13817   13818   13819   13818   13820   13821   13822
   13821   13823   13824   13825   13824   13826   13827   13828
   13827   13829   13830   13831   13830   13832   13833   13834
   13833   13835   13836   13837   13836   13838   13839   13840
   13839   13841   13842   13843   13842   13844   13845   13846
   13845   13847   13848   13849   13848   13850   13851   13852
   13851   13853   13854   13855   13854   13856   13857   13858
   13857   13859   13860   13861   13860   13862   13863   13864
   13863   13865   13866   13867   13866   13868   13869   13870
   13869   13871   13872   13873   13872   13874   13875   13876
   13875   13877   13878   13879   13878   13880   13881   13882
   13881   13883   13884   13885   13884   13886   13887   13888
   13887   13889   13890   13891   13890   13892   13893   13894
   13893   13895   13896   13897   13896   13898   13899   13900
   13899   13901   13902   13903   13902   13904   13905   13906
   13905   13907   13908   13909   13908   13910   13911   13912
   13911   13913   13914   13915   13914   13916   13917   13918
   13917   13919   13920   13921   13920   13922   13923   13924
   13923   13925   13926   13927   13926   13928   13929   13930
   13929   13931   13932   13933   13932   13934   13935   13936
   13935   13937   13938   13939   13938   13940   13941   13942
   13941   13943   13944   13945   13944   13946   13947   13948
   13947   13949   13950   13951   13950   13952   13953   13954
   13953   13955   13956   13957   13956   13958   13959   13960
   13959   13961   13962   13963   13962   13964   13965   13966
   13965   13967   13968   13969   13968   13970   13971   13972
   13971   13973   13974   13975   13974   13976   13977   13978
   13977   13979   13980   13981   13980   13982   13983   13984
   13983   13985   13986   13987   13986   13988   13989   13990
   13989   13991   13992   13993   13992   13994   13995   13996
   13995   13997   13998   13999   13998   14000   14001   14002
   14001   14003   14004   14005   14004   14006   14007   14008
   14007   14009   14010   14011   14010   14012   14013   14014
   14013   14015   14016   14017   14016   14018   14019   14020
   14019   14021   14022   14023   14022   14024   14025   14026
   14025   14027   14028   14029   14028   14030   14031   14032
   14031   14033   14034   14035   14034   14036   14037   14038
   14037   14039   14040   14041   14040   14042   14043   14044
   14043   14045   14046   14047   14046   14048   14049   14050
   14049   14051   14052   14053   14052   14054   14055   14056
   14055   14057   14058   14059   14058   14060   14061   14062
   14061   14063   14064   14065   14064   14066   14067   14068
   14067   14069   14070   14071   14070   14072   14073   14074
   14073   14075   14076   14077   14076   14078   14079   14080
   14079   14081   14082   14083   14082   14084   14085   14086
   14085   14087   14088   14089   14088   14090   14091   14092
   14091   14093   14094   14095   14094   14096   14097   14098
   14097   14099   14100   14101   14100   14102   14103   14104
   14103   14105   14106   14107   14106   14108   14109   14110
   14109   14111   14112   14113   14112   14114   14115   14116
   14115   14117   14118   14119   14118   14120   14121   14122
   14121   14123   14124   14125   14124   14126   14127   14128
   14127   14129   14130   14131   14130   14132   14133   14134
   14133   14135   14136   14137   14136   14138   14139   14140
   14139   14141   14142   14143   14142   14144   14145   14146
   14145   14147   14148   14149   14148   14150   14151   14152
   14151   14153   14154   14155   14154   14156   14157   14158
   14157   14159   14160   14161   14160   14162   14163   14164
   14163   14165   14166   14167   14166   14168   14169   14170
   14169   14171   14172   14173   14172   14174   14175   14176
   14175   14177   14178   14179   14178   14180   14181   14182
   14181   14183   14184   14185   14184   14186   14187   14188
   14187   14189   14190   14191   14190   14192   14193   14194
   14193   14195   14196   14197   14196   14198   14199   14200
   14199   14201   14202   14203   14202   14204   14205   14206
   14205   14207   14208   14209   14208   14210   14211   14212
   14211   14213   14214   14215   14214   14216   14217   14218
   14217   14219   14220   14221   14220   14222   14223   14224
   14223   14225   14226   14227   14226   14228   14229   14230
   14229   14231   14232   14233   14232   14234   14235   14236
   14235   14237   14238   14239   14238   14240   14241   14242
   14241   14243   14244   14245   14244   14246   14247   14248
   14247   14249   14250   14251   14250   14252   14253   14254
   14253   14255   14256   14257   14256   14258   14259   14260
   14259   14261   14262   14263   14262   14264   14265   14266
   14265   14267   14268   14269   14268   14270   14271   14272
   14271   14273   14274   14275   14274   14276   14277   14278
   14277   14279   14280   14281   14280   14282   14283   14284
   14283   14285   14286   14287   14286   14288   14289   14290
   14289   14291   14292   14293   14292   14294   14295   14296
   14295   14297   14298   14299   14298   14300   14301   14302
   14301   14303   14304   14305   14304   14306   14307   14308
   14307   14309   14310   14311   14310   14312   14313   14314
   14313   14315   14316   14317   14316   14318   14319   14320
   14319   14321   14322   14323   14322   14324   14325   14326
   14325   14327   14328   14329   14328   14330   14331   14332
   14331   14333   14334   14335   14334   14336   14337   14338
   14337   14339   14340   14341   14340   14342   14343   14344
   14343   14345   14346   14347   14346   14348   14349   14350
   14349   14351   14352   14353   14352   14354   14355   14356
   14355   14357   14358   14359   14358   14360   14361   14362
   14361   14363   14364   14365   14364   14366   14367   14368
   14367   14369   14370   14371   14370   14372   14373   14374
   14373   14375   14376   14377   14376   14378   14379   14380
   14379   14381   14382   14383   14382   14384   14385   14386
   14385   14387   14388   14389   14388   14390   14391   14392
   14391   14393   14394   14395   14394   14396   14397   14398
   14397   14399   14400   14401   14400   14402   14403   14404
   14403   14405   14406   14407   14406   14408   14409   14410
   14409   14411   14412   14413   14412   14414   14415   14416
   14415   14417   14418   14419   14418   14420   14421   14422
   14421   14423   14424   14425   14424   14426   14427   14428
   14427   14429   14430   14431   14430   14432   14433   14434
   14433   14435   14436   14437   14436   14438   14439   14440
   14439   14441   14442   14443   14442   14444   14445   14446
   14445   14447   14448   14449   14448   14450   14451   14452
   14451   14453   14454   14455   14454   14456   14457   14458
   14457   14459   14460   14461   14460   14462   14463   14464
   14463   14465   14466   14467   14466   14468   14469   14470
   14469   14471   14472   14473   14472   14474   14475   14476
   14475   14477   14478   14479   14478   14480   14481   14482
   14481   14483   14484   14485   14484   14486   14487   14488
   14487   14489   14490   14491   14490   14492   14493   14494
   14493   14495   14496   14497   14496   14498   14499   14500
   14499   14501   14502   14503   14502   14504   14505   14506
   14505   14507   14508   14509   14508   14510   14511   14512
   14511   14513   14514   14515   14514   14516   14517   14518
   14517   14519   14520   14521   14520   14522   14523   14524
   14523   14525   14526   14527   14526   14528   14529   14530
   14529   14531   14532   14533   14532   14534   14535   14536
   14535   14537   14538   14539   14538   14540   14541   14542
   14541   14543   14544   14545   14544   14546   14547   14548
   14547   14549   14550   14551   14550   14552   14553   14554
   14553   14555   14556   14557   14556   14558   14559   14560
   14559   14561   14562   14563   14562   14564   14565   14566
   14565   14567   14568   14569   14568   14570   14571   14572
   14571   14573   14574   14575   14574   14576   14577   14578
   14577   14579   14580   14581   14580   14582   14583   14584
   14583   14585   14586   14587   14586   14588   14589   14590
   14589   14591   14592   14593   14592   14594   14595   14596
   14595   14597   14598   14599   14598   14600   14601   14602
   14601   14603   14604   14605   14604   14606   14607   14608
   14607   14609   14610   14611   14610   14612   14613   14614
   14613   14615   14616   14617   14616   14618   14619   14620
   14619   14621   14622   14623   14622   14624   14625   14626
   14625   14627   14628   14629   14628   14630   14631   14632
   14631   14633   14634   14635   14634   14636   14637   14638
   14637   14639   14640   14641   14640   14642   14643   14644
   14643   14645   14646   14647   14646   14648   14649   14650
   14649   14651   14652   14653   14652   14654   14655   14656
   14655   14657   14658   14659   14658   14660   14661   14662
   14661   14663   14664   14665   14664   14666   14667   14668
   14667   14669   14670   14671   14670   14672   14673   14674
   14673   14675   14676   14677   14676   14678   14679   14680
   14679   14681   14682   14683   14682   14684   14685   14686
   14685   14687   14688   14689   14688   14690   14691   14692
   14691   14693   14694   14695   14694   14696   14697   14698
   14697   14699   14700   14701   14700   14702   14703   14704
   14703   14705   14706   14707   14706   14708   14709   14710
   14709   14711   14712   14713   14712   14714   14715   14716
   14715   14717   14718   14719   14718   14720   14721   14722
   14721   14723   14724   14725   14724   14726   14727   14728
   14727   14729   14730   14731   14730   14732   14733   14734
   14733   14735   14736   14737   14736   14738   14739   14740
   14739   14741   14742   14743   14742   14744   14745   14746
   14745   14747   14748   14749   14748   14750   14751   14752
   14751   14753   14754   14755   14754   14756   14757   14758
   14757   14759   14760   14761   14760   14762   14763   14764
   14763   14765   14766   14767   14766   14768   14769   14770
   14769   14771   14772   14773   14772   14774   14775   14776
   14775   14777   14810   14812   14810   14811   14810   14856
   14810   14814   14812   14813   14814   14815   14814   14816
   14814   14817   14817   14848   14817   14818   14818   14819
   14818   14820   14820   14821   14820   14822   14820   14823
   14823   14824   14823   14846   14823   14825   14825   14826
   14825   14835   14825   14827   14827   14828   14827   14829
   14827   14830   14830   14831   14830   14832   14830   14833
   14833   14834   14833   14835   14833   14859   14835   14840
   14835   14836   14836   14837   14836   14838   14836   14839
   14840   14841   14840   14842   14840   14843   14843   14844
   14843   14845   14843   14846   14846   14847   14846   14848
   14848   14853   14848   14849   14849   14850   14849   14851
   14849   14852   14853   14854   14853   14855   14853   14856
   14856   14857   14856   14858   14859   14860   14859   14861
   14859   14865   14861   14862   14861   14863   14861   14864
   14865   14866   14865   14867   14865   14868   14868   14869
   14868   14870   14868   14871   14871   14872   14871   14873
   14871   14874   14874   14875   14874   14876   14874   14880
   14876   14877   14876   14878   14876   14879   14880   14881
   14880   14882   14880   14883   14884   14886   14884   14885
   14884   14930   14884   14888   14886   14887   14888   14889
   14888   14890   14888   14891   14891   14922   14891   14892
   14892   14893   14892   14894   14894   14895   14894   14896
   14894   14897   14897   14898   14897   14920   14897   14899
   14899   14900   14899   14909   14899   14901   14901   14902
   14901   14903   14901   14904   14904   14905   14904   14906
   14904   14907   14907   14908   14907   14909   14907   14933
   14909   14914   14909   14910   14910   14911   14910   14912
   14910   14913   14914   14915   14914   14916   14914   14917
   14917   14918   14917   14919   14917   14920   14920   14921
   14920   14922   14922   14927   14922   14923   14923   14924
   14923   14925   14923   14926   14927   14928   14927   14929
   14927   14930   14930   14931   14930   14932   14933   14934
   14933   14935   14933   14939   14935   14936   14935   14937
   14935   14938   14939   14940   14939   14941   14939   14942
   14942   14943   14942   14944   14942   14945   14945   14946
   14945   14947   14945   14948   14948   14949   14948   14950
   14948   14954   14950   14951   14950   14952   14950   14953
   14954   14955   14954   14956   14954   14957   14958   14960
   14958   14959   14958   15004   14958   14962   14960   14961
   14962   14963   14962   14964   14962   14965   14965   14996
   14965   14966   14966   14967   14966   14968   14968   14969
   14968   14970   14968   14971   14971   14972   14971   14994
   14971   14973   14973   14974   14973   14983   14973   14975
   14975   14976   14975   14977   14975   14978   14978   14979
   14978   14980   14978   14981   14981   14982   14981   14983
   14981   15007   14983   14988   14983   14984   14984   14985
   14984   14986   14984   14987   14988   14989   14988   14990
   14988   14991   14991   14992   14991   14993   14991   14994
   14994   14995   14994   14996   14996   15001   14996   14997
   14997   14998   14997   14999   14997   15000   15001   15002
   15001   15003   15001   15004   15004   15005   15004   15006
   15007   15008   15007   15009   15007   15013   15009   15010
   15009   15011   15009   15012   15013   15014   15013   15015
   15013   15016   15016   15017   15016   15018   15016   15019
   15019   15020   15019   15021   15019   15022   15022   15023
   15022   15024   15022   15028   15024   15025   15024   15026
   15024   15027   15028   15029   15028   15030   15028   15031
   15032   15034   15032   15033   15032   15078   15032   15036
   15034   15035   15036   15037   15036   15038   15036   15039
   15039   15070   15039   15040   15040   15041   15040   15042
   15042   15043   15042   15044   15042   15045   15045   15046
   15045   15068   15045   15047   15047   15048   15047   15057
   15047   15049   15049   15050   15049   15051   15049   15052
   15052   15053   15052   15054   15052   15055   15055   15056
   15055   15057   15055   15081   15057   15062   15057   15058
   15058   15059   15058   15060   15058   15061   15062   15063
   15062   15064   15062   15065   15065   15066   15065   15067
   15065   15068   15068   15069   15068   15070   15070   15075
   15070   15071   15071   15072   15071   15073   15071   15074
   15075   15076   15075   15077   15075   15078   15078   15079
   15078   15080   15081   15082   15081   15083   15081   15087
   15083   15084   15083   15085   15083   15086   15087   15088
   15087   15089   15087   15090   15090   15091   15090   15092
   15090   15093   15093   15094   15093   15095   15093   15096
   15096   15097   15096   15098   15096   15102   15098   15099
   15098   15100   15098   15101   15102   15103   15102   15104
   15102   15105   15106   15108   15106   15107   15106   15152
   15106   15110   15108   15109   15110   15111   15110   15112
   15110   15113   15113   15144   15113   15114   15114   15115
   15114   15116   15116   15117   15116   15118   15116   15119
   15119   15120   15119   15142   15119   15121   15121   15122
   15121   15131   15121   15123   15123   15124   15123   15125
   15123   15126   15126   15127   15126   15128   15126   15129
   15129   15130   15129   15131   15129   15155   15131   15136
   15131   15132   15132   15133   15132   15134   15132   15135
   15136   15137   15136   15138   15136   15139   15139   15140
   15139   15141   15139   15142   15142   15143   15142   15144
   15144   15149   15144   15145   15145   15146   15145   15147
   15145   15148   15149   15150   15149   15151   15149   15152
   15152   15153   15152   15154   15155   15156   15155   15157
   15155   15161   15157   15158   15157   15159   15157   15160
   15161   15162   15161   15163   15161   15164   15164   15165
   15164   15166   15164   15167   15167   15168   15167   15169
   15167   15170   15170   15171   15170   15172   15170   15176
   15172   15173   15172   15174   15172   15175   15176   15177
   15176   15178   15176   15179   15180   15182   15180   15181
   15180   15226   15180   15184   15182   15183   15184   15185
   15184   15186   15184   15187   15187   15218   15187   15188
   15188   15189   15188   15190   15190   15191   15190   15192
   15190   15193   15193   15194   15193   15216   15193   15195
   15195   15196   15195   15205   15195   15197   15197   15198
   15197   15199   15197   15200   15200   15201   15200   15202
   15200   15203   15203   15204   15203   15205   15203   15229
   15205   15210   15205   15206   15206   15207   15206   15208
   15206   15209   15210   15211   15210   15212   15210   15213
   15213   15214   15213   15215   15213   15216   15216   15217
   15216   15218   15218   15223   15218   15219   15219   15220
   15219   15221   15219   15222   15223   15224   15223   15225
   15223   15226   15226   15227   15226   15228   15229   15230
   15229   15231   15229   15235   15231   15232   15231   15233
   15231   15234   15235   15236   15235   15237   15235   15238
   15238   15239   15238   15240   15238   15241   15241   15242
   15241   15243   15241   15244   15244   15245   15244   15246
   15244   15250   15246   15247   15246   15248   15246   15249
   15250   15251   15250   15252   15250   15253   15254   15256
   15254   15255   15254   15300   15254   15258   15256   15257
   15258   15259   15258   15260   15258   15261   15261   15292
   15261   15262   15262   15263   15262   15264   15264   15265
   15264   15266   15264   15267   15267   15268   15267   15290
   15267   15269   15269   15270   15269   15279   15269   15271
   15271   15272   15271   15273   15271   15274   15274   15275
   15274   15276   15274   15277   15277   15278   15277   15279
   15277   15303   15279   15284   15279   15280   15280   15281
   15280   15282   15280   15283   15284   15285   15284   15286
   15284   15287   15287   15288   15287   15289   15287   15290
   15290   15291   15290   15292   15292   15297   15292   15293
   15293   15294   15293   15295   15293   15296   15297   15298
   15297   15299   15297   15300   15300   15301   15300   15302
   15303   15304   15303   15305   15303   15309   15305   15306
   15305   15307   15305   15308   15309   15310   15309   15311
   15309   15312   15312   15313   15312   15314   15312   15315
   15315   15316   15315   15317   15315   15318   15318   15319
   15318   15320   15318   15324   15320   15321   15320   15322
   15320   15323   15324   15325   15324   15326   15324   15327
   15328   15330   15328   15329   15328   15374   15328   15332
   15330   15331   15332   15333   15332   15334   15332   15335
   15335   15366   15335   15336   15336   15337   15336   15338
   15338   15339   15338   15340   15338   15341   15341   15342
   15341   15364   15341   15343   15343   15344   15343   15353
   15343   15345   15345   15346   15345   15347   15345   15348
   15348   15349   15348   15350   15348   15351   15351   15352
   15351   15353   15351   15377   15353   15358   15353   15354
   15354   15355   15354   15356   15354   15357   15358   15359
   15358   15360   15358   15361   15361   15362   15361   15363
   15361   15364   15364   15365   15364   15366   15366   15371
   15366   15367   15367   15368   15367   15369   15367   15370
   15371   15372   15371   15373   15371   15374   15374   15375
   15374   15376   15377   15378   15377   15379   15377   15383
   15379   15380   15379   15381   15379   15382   15383   15384
   15383   15385   15383   15386   15386   15387   15386   15388
   15386   15389   15389   15390   15389   15391   15389   15392
   15392   15393   15392   15394   15392   15398   15394   15395
   15394   15396   15394   15397   15398   15399   15398   15400
   15398   15401   15402   15404   15402   15403   15402   15448
   15402   15406   15404   15405   15406   15407   15406   15408
   15406   15409   15409   15440   15409   15410   15410   15411
   15410   15412   15412   15413   15412   15414   15412   15415
   15415   15416   15415   15438   15415   15417   15417   15418
   15417   15427   15417   15419   15419   15420   15419   15421
   15419   15422   15422   15423   15422   15424   15422   15425
   15425   15426   15425   15427   15425   15451   15427   15432
   15427   15428   15428   15429   15428   15430   15428   15431
   15432   15433   15432   15434   15432   15435   15435   15436
   15435   15437   15435   15438   15438   15439   15438   15440
   15440   15445   15440   15441   15441   15442   15441   15443
   15441   15444   15445   15446   15445   15447   15445   15448
   15448   15449   15448   15450   15451   15452   15451   15453
   15451   15457   15453   15454   15453   15455   15453   15456
   15457   15458   15457   15459   15457   15460   15460   15461
   15460   15462   15460   15463   15463   15464   15463   15465
   15463   15466   15466   15467   15466   15468   15466   15472
   15468   15469   15468   15470   15468   15471   15472   15473
   15472   15474   15472   15475   15476   15478   15476   15477
   15476   15522   15476   15480   15478   15479   15480   15481
   15480   15482   15480   15483   15483   15514   15483   15484
   15484   15485   15484   15486   15486   15487   15486   15488
   15486   15489   15489   15490   15489   15512   15489   15491
   15491   15492   15491   15501   15491   15493   15493   15494
   15493   15495   15493   15496   15496   15497   15496   15498
   15496   15499   15499   15500   15499   15501   15499   15525
   15501   15506   15501   15502   15502   15503   15502   15504
   15502   15505   15506   15507   15506   15508   15506   15509
   15509   15510   15509   15511   15509   15512   15512   15513
   15512   15514   15514   15519   15514   15515   15515   15516
   15515   15517   15515   15518   15519   15520   15519   15521
   15519   15522   15522   15523   15522   15524   15525   15526
   15525   15527   15525   15531   15527   15528   15527   15529
   15527   15530   15531   15532   15531   15533   15531   15534
   15534   15535   15534   15536   15534   15537   15537   15538
   15537   15539   15537   15540   15540   15541   15540   15542
   15540   15546   15542   15543   15542   15544   15542   15545
   15546   15547   15546   15548   15546   15549   15550   15552
   15550   15551   15550   15596   15550   15554   15552   15553
   15554   15555   15554   15556   15554   15557   15557   15588
   15557   15558   15558   15559   15558   15560   15560   15561
   15560   15562   15560   15563   15563   15564   15563   15586
   15563   15565   15565   15566   15565   15575   15565   15567
   15567   15568   15567   15569   15567   15570   15570   15571
   15570   15572   15570   15573   15573   15574   15573   15575
   15573   15599   15575   15580   15575   15576   15576   15577
   15576   15578   15576   15579   15580   15581   15580   15582
   15580   15583   15583   15584   15583   15585   15583   15586
   15586   15587   15586   15588   15588   15593   15588   15589
   15589   15590   15589   15591   15589   15592   15593   15594
   15593   15595   15593   15596   15596   15597   15596   15598
   15599   15600   15599   15601   15599   15605   15601   15602
   15601   15603   15601   15604   15605   15606   15605   15607
   15605   15608   15608   15609   15608   15610   15608   15611
   15611   15612   15611   15613   15611   15614   15614   15615
   15614   15616   15614   15620   15616   15617   15616   15618
   15616   15619   15620   15621   15620   15622   15620   15623
   15624   15626   15624   15625   15624   15670   15624   15628
   15626   15627   15628   15629   15628   15630   15628   15631
   15631   15662   15631   15632   15632   15633   15632   15634
   15634   15635   15634   15636   15634   15637   15637   15638
   15637   15660   15637   15639   15639   15640   15639   15649
   15639   15641   15641   15642   15641   15643   15641   15644
   15644   15645   15644   15646   15644   15647   15647   15648
   15647   15649   15647   15673   15649   15654   15649   15650
   15650   15651   15650   15652   15650   15653   15654   15655
   15654   15656   15654   15657   15657   15658   15657   15659
   15657   15660   15660   15661   15660   15662   15662   15667
   15662   15663   15663   15664   15663   15665   15663   15666
   15667   15668   15667   15669   15667   15670   15670   15671
   15670   15672   15673   15674   15673   15675   15673   15679
   15675   15676   15675   15677   15675   15678   15679   15680
   15679   15681   15679   15682   15682   15683   15682   15684
   15682   15685   15685   15686   15685   15687   15685   15688
   15688   15689   15688   15690   15688   15694   15690   15691
   15690   15692   15690   15693   15694   15695   15694   15696
   15694   15697   15698   15700   15698   15699   15698   15744
   15698   15702   15700   15701   15702   15703   15702   15704
   15702   15705   15705   15736   15705   15706   15706   15707
   15706   15708   15708   15709   15708   15710   15708   15711
   15711   15712   15711   15734   15711   15713   15713   15714
   15713   15723   15713   15715   15715   15716   15715   15717
   15715   15718   15718   15719   15718   15720   15718   15721
   15721   15722   15721   15723   15721   15747   15723   15728
   15723   15724   15724   15725   15724   15726   15724   15727
   15728   15729   15728   15730   15728   15731   15731   15732
   15731   15733   15731   15734   15734   15735   15734   15736
   15736   15741   15736   15737   15737   15738   15737   15739
   15737   15740   15741   15742   15741   15743   15741   15744
   15744   15745   15744   15746   15747   15748   15747   15749
   15747   15753   15749   15750   15749   15751   15749   15752
   15753   15754   15753   15755   15753   15756   15756   15757
   15756   15758   15756   15759   15759   15760   15759   15761
   15759   15762   15762   15763   15762   15764   15762   15768
   15764   15765   15764   15766   15764   15767   15768   15769
   15768   15770   15768   15771   15772   15774   15772   15773
   15772   15818   15772   15776   15774   15775   15776   15777
   15776   15778   15776   15779   15779   15810   15779   15780
   15780   15781   15780   15782   15782   15783   15782   15784
   15782   15785   15785   15786   15785   15808   15785   15787
   15787   15788   15787   15797   15787   15789   15789   15790
   15789   15791   15789   15792   15792   15793   15792   15794
   15792   15795   15795   15796   15795   15797   15795   15821
   15797   15802   15797   15798   15798   15799   15798   15800
   15798   15801   15802   15803   15802   15804   15802   15805
   15805   15806   15805   15807   15805   15808   15808   15809
   15808   15810   15810   15815   15810   15811   15811   15812
   15811   15813   15811   15814   15815   15816   15815   15817
   15815   15818   15818   15819   15818   15820   15821   15822
   15821   15823   15821   15827   15823   15824   15823   15825
   15823   15826   15827   15828   15827   15829   15827   15830
   15830   15831   15830   15832   15830   15833   15833   15834
   15833   15835   15833   15836   15836   15837   15836   15838
   15836   15842   15838   15839   15838   15840   15838   15841
   15842   15843   15842   15844   15842   15845   15846   15848
   15846   15847   15846   15892   15846   15850   15848   15849
   15850   15851   15850   15852   15850   15853   15853   15884
   15853   15854   15854   15855   15854   15856   15856   15857
   15856   15858   15856   15859   15859   15860   15859   15882
   15859   15861   15861   15862   15861   15871   15861   15863
   15863   15864   15863   15865   15863   15866   15866   15867
   15866   15868   15866   15869   15869   15870   15869   15871
   15869   15895   15871   15876   15871   15872   15872   15873
   15872   15874   15872   15875   15876   15877   15876   15878
   15876   15879   15879   15880   15879   15881   15879   15882
   15882   15883   15882   15884   15884   15889   15884   15885
   15885   15886   15885   15887   15885   15888   15889   15890
   15889   15891   15889   15892   15892   15893   15892   15894
   15895   15896   15895   15897   15895   15901   15897   15898
   15897   15899   15897   15900   15901   15902   15901   15903
   15901   15904   15904   15905   15904   15906   15904   15907
   15907   15908   15907   15909   15907   15910   15910   15911
   15910   15912   15910   15916   15912   15913   15912   15914
   15912   15915   15916   15917   15916   15918   15916   15919
   15920   15922   15920   15921   15920   15966   15920   15924
   15922   15923   15924   15925   15924   15926   15924   15927
   15927   15958   15927   15928   15928   15929   15928   15930
   15930   15931   15930   15932   15930   15933   15933   15934
   15933   15956   15933   15935   15935   15936   15935   15945
   15935   15937   15937   15938   15937   15939   15937   15940
   15940   15941   15940   15942   15940   15943   15943   15944
   15943   15945   15943   15969   15945   15950   15945   15946
   15946   15947   15946   15948   15946   15949   15950   15951
   15950   15952   15950   15953   15953   15954   15953   15955
   15953   15956   15956   15957   15956   15958   15958   15963
   15958   15959   15959   15960   15959   15961   15959   15962
   15963   15964   15963   15965   15963   15966   15966   15967
   15966   15968   15969   15970   15969   15971   15969   15975
   15971   15972   15971   15973   15971   15974   15975   15976
   15975   15977   15975   15978   15978   15979   15978   15980
   15978   15981   15981   15982   15981   15983   15981   15984
   15984   15985   15984   15986   15984   15990   15986   15987
   15986   15988   15986   15989   15990   15991   15990   15992
   15990   15993   15994   15996   15994   15995   15994   16040
   15994   15998   15996   15997   15998   15999   15998   16000
   15998   16001   16001   16032   16001   16002   16002   16003
   16002   16004   16004   16005   16004   16006   16004   16007
   16007   16008   16007   16030   16007   16009   16009   16010
   16009   16019   16009   16011   16011   16012   16011   16013
   16011   16014   16014   16015   16014   16016   16014   16017
   16017   16018   16017   16019   16017   16043   16019   16024
   16019   16020   16020   16021   16020   16022   16020   16023
   16024   16025   16024   16026   16024   16027   16027   16028
   16027   16029   16027   16030   16030   16031   16030   16032
   16032   16037   16032   16033   16033   16034   16033   16035
   16033   16036   16037   16038   16037   16039   16037   16040
   16040   16041   16040   16042   16043   16044   16043   16045
   16043   16049   16045   16046   16045   16047   16045   16048
   16049   16050   16049   16051   16049   16052   16052   16053
   16052   16054   16052   16055   16055   16056   16055   16057
   16055   16058   16058   16059   16058   16060   16058   16064
   16060   16061   16060   16062   16060   16063   16064   16065
   16064   16066   16064   16067   16068   16070   16068   16069
   16068   16114   16068   16072   16070   16071   16072   16073
   16072   16074   16072   16075   16075   16106   16075   16076
   16076   16077   16076   16078   16078   16079   16078   16080
   16078   16081   16081   16082   16081   16104   16081   16083
   16083   16084   16083   16093   16083   16085   16085   16086
   16085   16087   16085   16088   16088   16089   16088   16090
   16088   16091   16091   16092   16091   16093   16091   16117
   16093   16098   16093   16094   16094   16095   16094   16096
   16094   16097   16098   16099   16098   16100   16098   16101
   16101   16102   16101   16103   16101   16104   16104   16105
   16104   16106   16106   16111   16106   16107   16107   16108
   16107   16109   16107   16110   16111   16112   16111   16113
   16111   16114   16114   16115   16114   16116   16117   16118
   16117   16119   16117   16123   16119   16120   16119   16121
   16119   16122   16123   16124   16123   16125   16123   16126
   16126   16127   16126   16128   16126   16129   16129   16130
   16129   16131   16129   16132   16132   16133   16132   16134
   16132   16138   16134   16135   16134   16136   16134   16137
   16138   16139   16138   16140   16138   16141   16142   16144
   16142   16143   16142   16188   16142   16146   16144   16145
   16146   16147   16146   16148   16146   16149   16149   16180
   16149   16150   16150   16151   16150   16152   16152   16153
   16152   16154   16152   16155   16155   16156   16155   16178
   16155   16157   16157   16158   16157   16167   16157   16159
   16159   16160   16159   16161   16159   16162   16162   16163
   16162   16164   16162   16165   16165   16166   16165   16167
   16165   16191   16167   16172   16167   16168   16168   16169
   16168   16170   16168   16171   16172   16173   16172   16174
   16172   16175   16175   16176   16175   16177   16175   16178
   16178   16179   16178   16180   16180   16185   16180   16181
   16181   16182   16181   16183   16181   16184   16185   16186
   16185   16187   16185   16188   16188   16189   16188   16190
   16191   16192   16191   16193   16191   16197   16193   16194
   16193   16195   16193   16196   16197   16198   16197   16199
   16197   16200   16200   16201   16200   16202   16200   16203
   16203   16204   16203   16205   16203   16206   16206   16207
   16206   16208   16206   16212   16208   16209   16208   16210
   16208   16211   16212   16213   16212   16214   16212   16215
   16216   16218   16216   16217   16216   16262   16216   16220
   16218   16219   16220   16221   16220   16222   16220   16223
   16223   16254   16223   16224   16224   16225   16224   16226
   16226   16227   16226   16228   16226   16229   16229   16230
   16229   16252   16229   16231   16231   16232   16231   16241
   16231   16233   16233   16234   16233   16235   16233   16236
   16236   16237   16236   16238   16236   16239   16239   16240
   16239   16241   16239   16265   16241   16246   16241   16242
   16242   16243   16242   16244   16242   16245   16246   16247
   16246   16248   16246   16249   16249   16250   16249   16251
   16249   16252   16252   16253   16252   16254   16254   16259
   16254   16255   16255   16256   16255   16257   16255   16258
   16259   16260   16259   16261   16259   16262   16262   16263
   16262   16264   16265   16266   16265   16267   16265   16271
   16267   16268   16267   16269   16267   16270   16271   16272
   16271   16273   16271   16274   16274   16275   16274   16276
   16274   16277   16277   16278   16277   16279   16277   16280
   16280   16281   16280   16282   16280   16286   16282   16283
   16282   16284   16282   16285   16286   16287   16286   16288
   16286   16289   16290   16292   16290   16291   16290   16336
   16290   16294   16292   16293   16294   16295   16294   16296
   16294   16297   16297   16328   16297   16298   16298   16299
   16298   16300   16300   16301   16300   16302   16300   16303
   16303   16304   16303   16326   16303   16305   16305   16306
   16305   16315   16305   16307   16307   16308   16307   16309
   16307   16310   16310   16311   16310   16312   16310   16313
   16313   16314   16313   16315   16313   16339   16315   16320
   16315   16316   16316   16317   16316   16318   16316   16319
   16320   16321   16320   16322   16320   16323   16323   16324
   16323   16325   16323   16326   16326   16327   16326   16328
   16328   16333   16328   16329   16329   16330   16329   16331
   16329   16332   16333   16334   16333   16335   16333   16336
   16336   16337   16336   16338   16339   16340   16339   16341
   16339   16345   16341   16342   16341   16343   16341   16344
   16345   16346   16345   16347   16345   16348   16348   16349
   16348   16350   16348   16351   16351   16352   16351   16353
   16351   16354   16354   16355   16354   16356   16354   16360
   16356   16357   16356   16358   16356   16359   16360   16361
   16360   16362   16360   16363   16364   16373   16364   16369
   16364   16365   16364   16377   16365   16366   16365   16367
   16365   16368   16369   16370   16369   16371   16369   16372
   16373   16374   16373   16375   16373   16376   16377   16378
   16377   16379   16377   16380   16380   16381   16380   16382
   16380   16387   16383   16384   16383   16385   16383   16386
   16383   16387   16386   16388   16388   16389   16388   16390
   16388   16393   16391   16392   16391   16443   16391   16393
   16393   16394   16393   16395   16395   16396   16395   16397
   16395   16399   16397   16398   16399   16400   16399   16401
   16401   16402   16401   16403   16403   16404   16403   16405
   16403   16406   16406   16407   16406   16408   16406   16409
   16409   16410   16409   16411   16409   16412   16412   16413
   16412   16414   16412   16415   16415   16416   16415   16417
   16415   16418   16418   16419   16418   16420   16418   16421
   16421   16422   16421   16423   16421   16424   16424   16425
   16424   16426   16424   16427   16427   16428   16427   16429
   16427   16430   16430   16431   16430   16432   16430   16433
   16433   16434   16433   16435   16433   16436   16436   16437
   16436   16438   16436   16439   16439   16440   16439   16441
   16439   16442   16443   16445   16443   16444   16445   16446
   16445   16447   16445   16448   16448   16449   16448   16450
   16448   16451   16451   16452   16451   16453   16451   16454
   16454   16455   16454   16456   16454   16457   16457   16458
   16457   16459   16457   16460   16460   16461   16460   16462
   16460   16463   16463   16464   16463   16465   16463   16466
   16466   16467   16466   16468   16466   16469   16469   16470
   16469   16471   16469   16472   16472   16473   16472   16474
   16472   16475   16475   16476   16475   16477   16475   16478
   16478   16479   16478   16480   16478   16481   16481   16482
   16481   16483   16481   16484   16484   16485   16484   16486
   16484   16487   16487   16488   16487   16489   16487   16490
   16491   16495   16491   16499   16491   16503   16491   16492
   16492   16493   16492   16494   16492   16507   16495   16496
   16495   16497   16495   16498   16499   16500   16499   16501
   16499   16502   16503   16504   16503   16505   16503   16506
   16507   16508   16507   16509   16507   16513   16510   16514
   16510   16511   16510   16512   16510   16513   16514   16515
   16515   16516   16515   16517   16515   16518   16518   16519
   16518   16526   16518   16520   16520   16521   16521   16523
   16521   16522   16523   16524   16523   16525   16523   16535
   16526   16527   16526   16528   16526   16529   16529   16530
   16530   16532   16530   16531   16532   16533   16532   16534
   16532   16582   16535   16536   16535   16537   16535   16538
   16538   16539   16538   16540   16538   16541   16541   16542
   16541   16543   16541   16544   16544   16545   16544   16546
   16544   16547   16547   16548   16547   16549   16547   16550
   16550   16551   16550   16552   16550   16553   16553   16554
   16553   16555   16555   16556   16555   16557   16557   16558
   16557   16559   16557   16560   16560   16561   16560   16562
   16560   16563   16563   16564   16563   16565   16563   16566
   16566   16567   16566   16568   16566   16569   16569   16570
   16569   16571   16569   16572   16572   16573   16572   16574
   16572   16575   16575   16576   16575   16577   16575   16578
   16578   16579   16578   16580   16578   16581   16582   16583
   16582   16584   16582   16585   16585   16586   16585   16587
   16585   16588   16588   16589   16588   16590   16588   16591
   16591   16592   16591   16593   16591   16594   16594   16595
   16594   16596   16594   16597   16597   16598   16597   16599
   16597   16600   16600   16601   16600   16602   16600   16603
   16603   16604   16603   16605   16603   16606   16606   16607
   16606   16608   16606   16609   16609   16610   16609   16611
   16609   16612   16612   16613   16612   16614   16612   16615
   16615   16616   16615   16617   16615   16618   16618   16619
   16618   16620   16618   16621   16621   16622   16621   16623
   16621   16624   16625   16626   16625   16627   16625   16628
   16625   16629   16629   16630   16629   16634   16629   16631
   16631   16632   16631   16633   16634   16635   16634   16636
   16634   16640   16637   16641   16637   16638   16637   16639
   16637   16640   16641   16642   16642   16643   16642   16644
   16642   16645   16645   16646   16645   16653   16645   16647
   16647   16648   16648   16650   16648   16649   16650   16651
   16650   16652   16650   16662   16653   16654   16653   16655
   16653   16656   16656   16657   16657   16659   16657   16658
   16659   16660   16659   16661   16659   16709   16662   16663
   16662   16664   16662   16665   16665   16666   16665   16667
   16665   16668   16668   16669   16668   16670   16668   16671
   16671   16672   16671   16673   16671   16674   16674   16675
   16674   16676   16674   16677   16677   16678   16677   16679
   16677   16680   16680   16681   16680   16682   16682   16683
   16682   16684   16684   16685   16684   16686   16684   16687
   16687   16688   16687   16689   16687   16690   16690   16691
   16690   16692   16690   16693   16693   16694   16693   16695
   16693   16696   16696   16697   16696   16698   16696   16699
   16699   16700   16699   16701   16699   16702   16702   16703
   16702   16704   16702   16705   16705   16706   16705   16707
   16705   16708   16709   16710   16709   16711   16709   16712
   16712   16713   16712   16714   16712   16715   16715   16716
   16715   16717   16715   16718   16718   16719   16718   16720
   16718   16721   16721   16722   16721   16723   16721   16724
   16724   16725   16724   16726   16724   16727   16727   16728
   16727   16729   16727   16730   16730   16731   16730   16732
   16730   16733   16733   16734   16733   16735   16733   16736
   16736   16737   16736   16738   16736   16739   16739   16740
   16739   16741   16739   16742   16742   16743   16742   16744
   16742   16745   16745   16746   16745   16747   16745   16748
   16748   16749   16748   16750   16748   16751   16752   16761
   16752   16757   16752   16753   16752   16765   16753   16754
   16753   16755   16753   16756   16757   16758   16757   16759
   16757   16760   16761   16762   16761   16763   16761   16764
   16765   16766   16765   16767   16765   16768   16768   16769
   16768   16770   16768   16775   16771   16772   16771   16773
   16771   16774   16771   16775   16774   16776   16776   16777
   16776   16778   16776   16781   16779   16780   16779   16831
   16779   16781   16781   16782   16781   16783   16783   16784
   16783   16785   16783   16787   16785   16786   16787   16788
   16787   16789   16789   16790   16789   16791   16791   16792
   16791   16793   16791   16794   16794   16795   16794   16796
   16794   16797   16797   16798   16797   16799   16797   16800
   16800   16801   16800   16802   16800   16803   16803   16804
   16803   16805   16803   16806   16806   16807   16806   16808
   16806   16809   16809   16810   16809   16811   16809   16812
   16812   16813   16812   16814   16812   16815   16815   16816
   16815   16817   16815   16818   16818   16819   16818   16820
   16818   16821   16821   16822   16821   16823   16821   16824
   16824   16825   16824   16826   16824   16827   16827   16828
   16827   16829   16827   16830   16831   16833   16831   16832
   16833   16834   16833   16835   16833   16836   16836   16837
   16836   16838   16836   16839   16839   16840   16839   16841
   16839   16842   16842   16843   16842   16844   16842   16845
   16845   16846   16845   16847   16845   16848   16848   16849
   16848   16850   16848   16851   16851   16852   16851   16853
   16851   16854   16854   16855   16854   16856   16854   16857
   16857   16858   16857   16859   16857   16860   16860   16861
   16860   16862   16860   16863   16863   16864   16863   16865
   16863   16866   16866   16867   16866   16868   16866   16869
   16869   16870   16869   16871   16869   16872   16872   16873
   16872   16874   16872   16875   16875   16876   16875   16877
   16875   16878   16879   16883   16879   16887   16879   16891
   16879   16880   16880   16881   16880   16882   16880   16895
   16883   16884   16883   16885   16883   16886   16887   16888
   16887   16889   16887   16890   16891   16892   16891   16893
   16891   16894   16895   16896   16895   16897   16895   16901
   16898   16902   16898   16899   16898   16900   16898   16901
   16902   16903   16903   16904   16903   16905   16903   16906
   16906   16907   16906   16914   16906   16908   16908   16909
   16909   16911   16909   16910   16911   16912   16911   16913
   16911   16923   16914   16915   16914   16916   16914   16917
   16917   16918   16918   16920   16918   16919   16920   16921
   16920   16922   16920   16970   16923   16924   16923   16925
   16923   16926   16926   16927   16926   16928   16926   16929
   16929   16930   16929   16931   16929   16932   16932   16933
   16932   16934   16932   16935   16935   16936   16935   16937
   16935   16938   16938   16939   16938   16940   16938   16941
   16941   16942   16941   16943   16943   16944   16943   16945
   16945   16946   16945   16947   16945   16948   16948   16949
   16948   16950   16948   16951   16951   16952   16951   16953
   16951   16954   16954   16955   16954   16956   16954   16957
   16957   16958   16957   16959   16957   16960   16960   16961
   16960   16962   16960   16963   16963   16964   16963   16965
   16963   16966   16966   16967   16966   16968   16966   16969
   16970   16971   16970   16972   16970   16973   16973   16974
   16973   16975   16973   16976   16976   16977   16976   16978
   16976   16979   16979   16980   16979   16981   16979   16982
   16982   16983   16982   16984   16982   16985   16985   16986
   16985   16987   16985   16988   16988   16989   16988   16990
   16988   16991   16991   16992   16991   16993   16991   16994
   16994   16995   16994   16996   16994   16997   16997   16998
   16997   16999   16997   17000   17000   17001   17000   17002
   17000   17003   17003   17004   17003   17005   17003   17006
   17006   17007   17006   17008   17006   17009   17009   17010
   17009   17011   17009   17012   17013   17014   17013   17015
   17013   17016   17013   17017   17017   17018   17017   17019
   17017   17020   17020   17021   17020   17022   17020   17027
   17023   17026   17023   17024   17023   17025   17023   17027
   17026   17028   17028   17029   17028   17030   17028   17031
   17031   17032   17031   17039   17031   17033   17033   17034
   17034   17036   17034   17035   17036   17037   17036   17038
   17036   17048   17039   17040   17039   17041   17039   17042
   17042   17043   17043   17045   17043   17044   17045   17046
   17045   17047   17045   17095   17048   17049   17048   17050
   17048   17051   17051   17052   17051   17053   17051   17054
   17054   17055   17054   17056   17054   17057   17057   17058
   17057   17059   17057   17060   17060   17061   17060   17062
   17060   17063   17063   17064   17063   17065   17063   17066
   17066   17067   17066   17068   17068   17069   17068   17070
   17070   17071   17070   17072   17070   17073   17073   17074
   17073   17075   17073   17076   17076   17077   17076   17078
   17076   17079   17079   17080   17079   17081   17079   17082
   17082   17083   17082   17084   17082   17085   17085   17086
   17085   17087   17085   17088   17088   17089   17088   17090
   17088   17091   17091   17092   17091   17093   17091   17094
   17095   17096   17095   17097   17095   17098   17098   17099
   17098   17100   17098   17101   17101   17102   17101   17103
   17101   17104   17104   17105   17104   17106   17104   17107
   17107   17108   17107   17109   17107   17110   17110   17111
   17110   17112   17110   17113   17113   17114   17113   17115
   17113   17116   17116   17117   17116   17118   17116   17119
   17119   17120   17119   17121   17119   17122   17122   17123
   17122   17124   17122   17125   17125   17126   17125   17127
   17125   17128   17128   17129   17128   17130   17128   17131
   17131   17132   17131   17133   17131   17134   17134   17135
   17134   17136   17134   17137   17138   17139   17138   17140
   17138   17141   17138   17142   17142   17143   17142   17147
   17142   17144   17144   17145   17144   17146   17147   17148
   17147   17149   17147   17153   17150   17154   17150   17151
   17150   17152   17150   17153   17154   17155   17155   17156
   17155   17157   17155   17158   17158   17159   17158   17166
   17158   17160   17160   17161   17161   17163   17161   17162
   17163   17164   17163   17165   17163   17175   17166   17167
   17166   17168   17166   17169   17169   17170   17170   17172
   17170   17171   17172   17173   17172   17174   17172   17222
   17175   17176   17175   17177   17175   17178   17178   17179
   17178   17180   17178   17181   17181   17182   17181   17183
   17181   17184   17184   17185   17184   17186   17184   17187
   17187   17188   17187   17189   17187   17190   17190   17191
   17190   17192   17190   17193   17193   17194   17193   17195
   17195   17196   17195   17197   17197   17198   17197   17199
   17197   17200   17200   17201   17200   17202   17200   17203
   17203   17204   17203   17205   17203   17206   17206   17207
   17206   17208   17206   17209   17209   17210   17209   17211
   17209   17212   17212   17213   17212   17214   17212   17215
   17215   17216   17215   17217   17215   17218   17218   17219
   17218   17220   17218   17221   17222   17223   17222   17224
   17222   17225   17225   17226   17225   17227   17225   17228
   17228   17229   17228   17230   17228   17231   17231   17232
   17231   17233   17231   17234   17234   17235   17234   17236
   17234   17237   17237   17238   17237   17239   17237   17240
   17240   17241   17240   17242   17240   17243   17243   17244
   17243   17245   17243   17246   17246   17247   17246   17248
   17246   17249   17249   17250   17249   17251   17249   17252
   17252   17253   17252   17254   17252   17255   17255   17256
   17255   17257   17255   17258   17258   17259   17258   17260
   17258   17261   17261   17262   17261   17263   17261   17264
   17265   17266   17265   17267   17265   17268   17265   17269
   17269   17270   17269   17271   17269   17272   17272   17273
   17272   17274   17272   17279   17275   17278   17275   17276
   17275   17277   17275   17279   17278   17280   17280   17281
   17280   17282   17280   17283   17283   17284   17283   17291
   17283   17285   17285   17286   17286   17288   17286   17287
   17288   17289   17288   17290   17288   17300   17291   17292
   17291   17293   17291   17294   17294   17295   17295   17297
   17295   17296   17297   17298   17297   17299   17297   17347
   17300   17301   17300   17302   17300   17303   17303   17304
   17303   17305   17303   17306   17306   17307   17306   17308
   17306   17309   17309   17310   17309   17311   17309   17312
   17312   17313   17312   17314   17312   17315   17315   17316
   17315   17317   17315   17318   17318   17319   17318   17320
   17320   17321   17320   17322   17322   17323   17322   17324
   17322   17325   17325   17326   17325   17327   17325   17328
   17328   17329   17328   17330   17328   17331   17331   17332
   17331   17333   17331   17334   17334   17335   17334   17336
   17334   17337   17337   17338   17337   17339   17337   17340
   17340   17341   17340   17342   17340   17343   17343   17344
   17343   17345   17343   17346   17347   17348   17347   17349
   17347   17350   17350   17351   17350   17352   17350   17353
   17353   17354   17353   17355   17353   17356   17356   17357
   17356   17358   17356   17359   17359   17360   17359   17361
   17359   17362   17362   17363   17362   17364   17362   17365
   17365   17366   17365   17367   17365   17368   17368   17369
   17368   17370   17368   17371   17371   17372   17371   17373
   17371   17374   17374   17375   17374   17376   17374   17377
   17377   17378   17377   17379   17377   17380   17380   17381
   17380   17382   17380   17383   17383   17384   17383   17385
   17383   17386   17386   17387   17386   17388   17386   17389
   17390   17391   17390   17392   17390   17393   17390   17394
   17394   17395   17394   17399   17394   17396   17396   17397
   17396   17398   17399   17400   17399   17401   17399   17405
   17402   17406   17402   17403   17402   17404   17402   17405
   17406   17407   17407   17408   17407   17409   17407   17410
   17410   17411   17410   17418   17410   17412   17412   17413
   17413   17415   17413   17414   17415   17416   17415   17417
   17415   17427   17418   17419   17418   17420   17418   17421
   17421   17422   17422   17424   17422   17423   17424   17425
   17424   17426   17424   17474   17427   17428   17427   17429
   17427   17430   17430   17431   17430   17432   17430   17433
   17433   17434   17433   17435   17433   17436   17436   17437
   17436   17438   17436   17439   17439   17440   17439   17441
   17439   17442   17442   17443   17442   17444   17442   17445
   17445   17446   17445   17447   17447   17448   17447   17449
   17449   17450   17449   17451   17449   17452   17452   17453
   17452   17454   17452   17455   17455   17456   17455   17457
   17455   17458   17458   17459   17458   17460   17458   17461
   17461   17462   17461   17463   17461   17464   17464   17465
   17464   17466   17464   17467   17467   17468   17467   17469
   17467   17470   17470   17471   17470   17472   17470   17473
   17474   17475   17474   17476   17474   17477   17477   17478
   17477   17479   17477   17480   17480   17481   17480   17482
   17480   17483   17483   17484   17483   17485   17483   17486
   17486   17487   17486   17488   17486   17489   17489   17490
   17489   17491   17489   17492   17492   17493   17492   17494
   17492   17495   17495   17496   17495   17497   17495   17498
   17498   17499   17498   17500   17498   17501   17501   17502
   17501   17503   17501   17504   17504   17505   17504   17506
   17504   17507   17507   17508   17507   17509   17507   17510
   17510   17511   17510   17512   17510   17513   17513   17514
   17513   17515   17513   17516   17517   17521   17517   17525
   17517   17529   17517   17518   17518   17519   17518   17520
   17518   17533   17521   17522   17521   17523   17521   17524
   17525   17526   17525   17527   17525   17528   17529   17530
   17529   17531   17529   17532   17533   17534   17533   17535
   17533   17539   17536   17540   17536   17537   17536   17538
   17536   17539   17540   17541   17541   17542   17541   17543
   17541   17544   17544   17545   17544   17552   17544   17546
   17546   17547   17547   17549   17547   17548   17549   17550
   17549   17551   17549   17561   17552   17553   17552   17554
   17552   17555   17555   17556   17556   17558   17556   17557
   17558   17559   17558   17560   17558   17608   17561   17562
   17561   17563   17561   17564   17564   17565   17564   17566
   17564   17567   17567   17568   17567   17569   17567   17570
   17570   17571   17570   17572   17570   17573   17573   17574
   17573   17575   17573   17576   17576   17577   17576   17578
   17576   17579   17579   17580   17579   17581   17581   17582
   17581   17583   17583   17584   17583   17585   17583   17586
   17586   17587   17586   17588   17586   17589   17589   17590
   17589   17591   17589   17592   17592   17593   17592   17594
   17592   17595   17595   17596   17595   17597   17595   17598
   17598   17599   17598   17600   17598   17601   17601   17602
   17601   17603   17601   17604   17604   17605   17604   17606
   17604   17607   17608   17609   17608   17610   17608   17611
   17611   17612   17611   17613   17611   17614   17614   17615
   17614   17616   17614   17617   17617   17618   17617   17619
   17617   17620   17620   17621   17620   17622   17620   17623
   17623   17624   17623   17625   17623   17626   17626   17627
   17626   17628   17626   17629   17629   17630   17629   17631
   17629   17632   17632   17633   17632   17634   17632   17635
   17635   17636   17635   17637   17635   17638   17638   17639
   17638   17640   17638   17641   17641   17642   17641   17643
   17641   17644   17644   17645   17644   17646   17644   17647
   17647   17648   17647   17649   17647   17650   17651   17652
   17651   17653   17651   17654   17651   17655   17655   17656
   17655   17657   17655   17658   17658   17659   17658   17660
   17658   17665   17661   17664   17661   17662   17661   17663
   17661   17665   17664   17666   17666   17667   17666   17668
   17666   17669   17669   17670   17669   17677   17669   17671
   17671   17672   17672   17674   17672   17673   17674   17675
   17674   17676   17674   17686   17677   17678   17677   17679
   17677   17680   17680   17681   17681   17683   17681   17682
   17683   17684   17683   17685   17683   17733   17686   17687
   17686   17688   17686   17689   17689   17690   17689   17691
   17689   17692   17692   17693   17692   17694   17692   17695
   17695   17696   17695   17697   17695   17698   17698   17699
   17698   17700   17698   17701   17701   17702   17701   17703
   17701   17704   17704   17705   17704   17706   17706   17707
   17706   17708   17708   17709   17708   17710   17708   17711
   17711   17712   17711   17713   17711   17714   17714   17715
   17714   17716   17714   17717   17717   17718   17717   17719
   17717   17720   17720   17721   17720   17722   17720   17723
   17723   17724   17723   17725   17723   17726   17726   17727
   17726   17728   17726   17729   17729   17730   17729   17731
   17729   17732   17733   17734   17733   17735   17733   17736
   17736   17737   17736   17738   17736   17739   17739   17740
   17739   17741   17739   17742   17742   17743   17742   17744
   17742   17745   17745   17746   17745   17747   17745   17748
   17748   17749   17748   17750   17748   17751   17751   17752
   17751   17753   17751   17754   17754   17755   17754   17756
   17754   17757   17757   17758   17757   17759   17757   17760
   17760   17761   17760   17762   17760   17763   17763   17764
   17763   17765   17763   17766   17766   17767   17766   17768
   17766   17769   17769   17770   17769   17771   17769   17772
   17772   17773   17772   17774   17772   17775   17776   17780
   17776   17784   17776   17788   17776   17777   17777   17778
   17777   17779   17777   17792   17780   17781   17780   17782
   17780   17783   17784   17785   17784   17786   17784   17787
   17788   17789   17788   17790   17788   17791   17792   17793
   17792   17794   17792   17798   17795   17799   17795   17796
   17795   17797   17795   17798   17799   17800   17800   17801
   17800   17802   17800   17803   17803   17804   17803   17811
   17803   17805   17805   17806   17806   17808   17806   17807
   17808   17809   17808   17810   17808   17820   17811   17812
   17811   17813   17811   17814   17814   17815   17815   17817
   17815   17816   17817   17818   17817   17819   17817   17867
   17820   17821   17820   17822   17820   17823   17823   17824
   17823   17825   17823   17826   17826   17827   17826   17828
   17826   17829   17829   17830   17829   17831   17829   17832
   17832   17833   17832   17834   17832   17835   17835   17836
   17835   17837   17835   17838   17838   17839   17838   17840
   17840   17841   17840   17842   17842   17843   17842   17844
   17842   17845   17845   17846   17845   17847   17845   17848
   17848   17849   17848   17850   17848   17851   17851   17852
   17851   17853   17851   17854   17854   17855   17854   17856
   17854   17857   17857   17858   17857   17859   17857   17860
   17860   17861   17860   17862   17860   17863   17863   17864
   17863   17865   17863   17866   17867   17868   17867   17869
   17867   17870   17870   17871   17870   17872   17870   17873
   17873   17874   17873   17875   17873   17876   17876   17877
   17876   17878   17876   17879   17879   17880   17879   17881
   17879   17882   17882   17883   17882   17884   17882   17885
   17885   17886   17885   17887   17885   17888   17888   17889
   17888   17890   17888   17891   17891   17892   17891   17893
   17891   17894   17894   17895   17894   17896   17894   17897
   17897   17898   17897   17899   17897   17900   17900   17901
   17900   17902   17900   17903   17903   17904   17903   17905
   17903   17906   17906   17907   17906   17908   17906   17909
   17910   17911   17910   17912   17910   17913   17910   17914
   17914   17915   17914   17919   17914   17916   17916   17917
   17916   17918   17919   17920   17919   17921   17919   17925
   17922   17926   17922   17923   17922   17924   17922   17925
   17926   17927   17927   17928   17927   17929   17927   17930
   17930   17931   17930   17938   17930   17932   17932   17933
   17933   17935   17933   17934   17935   17936   17935   17937
   17935   17947   17938   17939   17938   17940   17938   17941
   17941   17942   17942   17944   17942   17943   17944   17945
   17944   17946   17944   17994   17947   17948   17947   17949
   17947   17950   17950   17951   17950   17952   17950   17953
   17953   17954   17953   17955   17953   17956   17956   17957
   17956   17958   17956   17959   17959   17960   17959   17961
   17959   17962   17962   17963   17962   17964   17962   17965
   17965   17966   17965   17967   17967   17968   17967   17969
   17969   17970   17969   17971   17969   17972   17972   17973
   17972   17974   17972   17975   17975   17976   17975   17977
   17975   17978   17978   17979   17978   17980   17978   17981
   17981   17982   17981   17983   17981   17984   17984   17985
   17984   17986   17984   17987   17987   17988   17987   17989
   17987   17990   17990   17991   17990   17992   17990   17993
   17994   17995   17994   17996   17994   17997   17997   17998
   17997   17999   17997   18000   18000   18001   18000   18002
   18000   18003   18003   18004   18003   18005   18003   18006
   18006   18007   18006   18008   18006   18009   18009   18010
   18009   18011   18009   18012   18012   18013   18012   18014
   18012   18015   18015   18016   18015   18017   18015   18018
   18018   18019   18018   18020   18018   18021   18021   18022
   18021   18023   18021   18024   18024   18025   18024   18026
   18024   18027   18027   18028   18027   18029   18027   18030
   18030   18031   18030   18032   18030   18033   18033   18034
   18033   18035   18033   18036   18037   18046   18037   18042
   18037   18038   18037   18050   18038   18039   18038   18040
   18038   18041   18042   18043   18042   18044   18042   18045
   18046   18047   18046   18048   18046   18049   18050   18051
   18050   18052   18050   18053   18053   18054   18053   18055
   18053   18060   18056   18057   18056   18058   18056   18059
   18056   18060   18059   18061   18061   18062   18061   18063
   18061   18066   18064   18065   18064   18116   18064   18066
   18066   18067   18066   18068   18068   18069   18068   18070
   18068   18072   18070   18071   18072   18073   18072   18074
   18074   18075   18074   18076   18076   18077   18076   18078
   18076   18079   18079   18080   18079   18081   18079   18082
   18082   18083   18082   18084   18082   18085   18085   18086
   18085   18087   18085   18088   18088   18089   18088   18090
   18088   18091   18091   18092   18091   18093   18091   18094
   18094   18095   18094   18096   18094   18097   18097   18098
   18097   18099   18097   18100   18100   18101   18100   18102
   18100   18103   18103   18104   18103   18105   18103   18106
   18106   18107   18106   18108   18106   18109   18109   18110
   18109   18111   18109   18112   18112   18113   18112   18114
   18112   18115   18116   18118   18116   18117   18118   18119
   18118   18120   18118   18121   18121   18122   18121   18123
   18121   18124   18124   18125   18124   18126   18124   18127
   18127   18128   18127   18129   18127   18130   18130   18131
   18130   18132   18130   18133   18133   18134   18133   18135
   18133   18136   18136   18137   18136   18138   18136   18139
   18139   18140   18139   18141   18139   18142   18142   18143
   18142   18144   18142   18145   18145   18146   18145   18147
   18145   18148   18148   18149   18148   18150   18148   18151
   18151   18152   18151   18153   18151   18154   18154   18155
   18154   18156   18154   18157   18157   18158   18157   18159
   18157   18160   18160   18161   18160   18162   18160   18163
   18164   18168   18164   18172   18164   18176   18164   18165
   18165   18166   18165   18167   18165   18180   18168   18169
   18168   18170   18168   18171   18172   18173   18172   18174
   18172   18175   18176   18177   18176   18178   18176   18179
   18180   18181   18180   18182   18180   18186   18183   18187
   18183   18184   18183   18185   18183   18186   18187   18188
   18188   18189   18188   18190   18188   18191   18191   18192
   18191   18199   18191   18193   18193   18194   18194   18196
   18194   18195   18196   18197   18196   18198   18196   18208
   18199   18200   18199   18201   18199   18202   18202   18203
   18203   18205   18203   18204   18205   18206   18205   18207
   18205   18255   18208   18209   18208   18210   18208   18211
   18211   18212   18211   18213   18211   18214   18214   18215
   18214   18216   18214   18217   18217   18218   18217   18219
   18217   18220   18220   18221   18220   18222   18220   18223
   18223   18224   18223   18225   18223   18226   18226   18227
   18226   18228   18228   18229   18228   18230   18230   18231
   18230   18232   18230   18233   18233   18234   18233   18235
   18233   18236   18236   18237   18236   18238   18236   18239
   18239   18240   18239   18241   18239   18242   18242   18243
   18242   18244   18242   18245   18245   18246   18245   18247
   18245   18248   18248   18249   18248   18250   18248   18251
   18251   18252   18251   18253   18251   18254   18255   18256
   18255   18257   18255   18258   18258   18259   18258   18260
   18258   18261   18261   18262   18261   18263   18261   18264
   18264   18265   18264   18266   18264   18267   18267   18268
   18267   18269   18267   18270   18270   18271   18270   18272
   18270   18273   18273   18274   18273   18275   18273   18276
   18276   18277   18276   18278   18276   18279   18279   18280
   18279   18281   18279   18282   18282   18283   18282   18284
   18282   18285   18285   18286   18285   18287   18285   18288
   18288   18289   18288   18290   18288   18291   18291   18292
   18291   18293   18291   18294   18294   18295   18294   18296
   18294   18297   18298   18299   18298   18300   18298   18301
   18298   18302   18302   18303   18302   18307   18302   18304
   18304   18305   18304   18306   18307   18308   18307   18309
   18307   18313   18310   18314   18310   18311   18310   18312
   18310   18313   18314   18315   18315   18316   18315   18317
   18315   18318   18318   18319   18318   18326   18318   18320
   18320   18321   18321   18323   18321   18322   18323   18324
   18323   18325   18323   18335   18326   18327   18326   18328
   18326   18329   18329   18330   18330   18332   18330   18331
   18332   18333   18332   18334   18332   18382   18335   18336
   18335   18337   18335   18338   18338   18339   18338   18340
   18338   18341   18341   18342   18341   18343   18341   18344
   18344   18345   18344   18346   18344   18347   18347   18348
   18347   18349   18347   18350   18350   18351   18350   18352
   18350   18353   18353   18354   18353   18355   18355   18356
   18355   18357   18357   18358   18357   18359   18357   18360
   18360   18361   18360   18362   18360   18363   18363   18364
   18363   18365   18363   18366   18366   18367   18366   18368
   18366   18369   18369   18370   18369   18371   18369   18372
   18372   18373   18372   18374   18372   18375   18375   18376
   18375   18377   18375   18378   18378   18379   18378   18380
   18378   18381   18382   18383   18382   18384   18382   18385
   18385   18386   18385   18387   18385   18388   18388   18389
   18388   18390   18388   18391   18391   18392   18391   18393
   18391   18394   18394   18395   18394   18396   18394   18397
   18397   18398   18397   18399   18397   18400   18400   18401
   18400   18402   18400   18403   18403   18404   18403   18405
   18403   18406   18406   18407   18406   18408   18406   18409
   18409   18410   18409   18411   18409   18412   18412   18413
   18412   18414   18412   18415   18415   18416   18415   18417
   18415   18418   18418   18419   18418   18420   18418   18421
   18421   18422   18421   18423   18421   18424   18425   18434
   18425   18430   18425   18426   18425   18438   18426   18427
   18426   18428   18426   18429   18430   18431   18430   18432
   18430   18433   18434   18435   18434   18436   18434   18437
   18438   18439   18438   18440   18438   18441   18441   18442
   18441   18443   18441   18448   18444   18445   18444   18446
   18444   18447   18444   18448   18447   18449   18449   18450
   18449   18451   18449   18454   18452   18453   18452   18504
   18452   18454   18454   18455   18454   18456   18456   18457
   18456   18458   18456   18460   18458   18459   18460   18461
   18460   18462   18462   18463   18462   18464   18464   18465
   18464   18466   18464   18467   18467   18468   18467   18469
   18467   18470   18470   18471   18470   18472   18470   18473
   18473   18474   18473   18475   18473   18476   18476   18477
   18476   18478   18476   18479   18479   18480   18479   18481
   18479   18482   18482   18483   18482   18484   18482   18485
   18485   18486   18485   18487   18485   18488   18488   18489
   18488   18490   18488   18491   18491   18492   18491   18493
   18491   18494   18494   18495   18494   18496   18494   18497
   18497   18498   18497   18499   18497   18500   18500   18501
   18500   18502   18500   18503   18504   18506   18504   18505
   18506   18507   18506   18508   18506   18509   18509   18510
   18509   18511   18509   18512   18512   18513   18512   18514
   18512   18515   18515   18516   18515   18517   18515   18518
   18518   18519   18518   18520   18518   18521   18521   18522
   18521   18523   18521   18524   18524   18525   18524   18526
   18524   18527   18527   18528   18527   18529   18527   18530
   18530   18531   18530   18532   18530   18533   18533   18534
   18533   18535   18533   18536   18536   18537   18536   18538
   18536   18539   18539   18540   18539   18541   18539   18542
   18542   18543   18542   18544   18542   18545   18545   18546
   18545   18547   18545   18548   18548   18549   18548   18550
   18548   18551   18552   18556   18552   18560   18552   18564
   18552   18553   18553   18554   18553   18555   18553   18568
   18556   18557   18556   18558   18556   18559   18560   18561
   18560   18562   18560   18563   18564   18565   18564   18566
   18564   18567   18568   18569   18568   18570   18568   18574
   18571   18575   18571   18572   18571   18573   18571   18574
   18575   18576   18576   18577   18576   18578   18576   18579
   18579   18580   18579   18587   18579   18581   18581   18582
   18582   18584   18582   18583   18584   18585   18584   18586
   18584   18596   18587   18588   18587   18589   18587   18590
   18590   18591   18591   18593   18591   18592   18593   18594
   18593   18595   18593   18643   18596   18597   18596   18598
   18596   18599   18599   18600   18599   18601   18599   18602
   18602   18603   18602   18604   18602   18605   18605   18606
   18605   18607   18605   18608   18608   18609   18608   18610
   18608   18611   18611   18612   18611   18613   18611   18614
   18614   18615   18614   18616   18616   18617   18616   18618
   18618   18619   18618   18620   18618   18621   18621   18622
   18621   18623   18621   18624   18624   18625   18624   18626
   18624   18627   18627   18628   18627   18629   18627   18630
   18630   18631   18630   18632   18630   18633   18633   18634
   18633   18635   18633   18636   18636   18637   18636   18638
   18636   18639   18639   18640   18639   18641   18639   18642
   18643   18644   18643   18645   18643   18646   18646   18647
   18646   18648   18646   18649   18649   18650   18649   18651
   18649   18652   18652   18653   18652   18654   18652   18655
   18655   18656   18655   18657   18655   18658   18658   18659
   18658   18660   18658   18661   18661   18662   18661   18663
   18661   18664   18664   18665   18664   18666   18664   18667
   18667   18668   18667   18669   18667   18670   18670   18671
   18670   18672   18670   18673   18673   18674   18673   18675
   18673   18676   18676   18677   18676   18678   18676   18679
   18679   18680   18679   18681   18679   18682   18682   18683
   18682   18684   18682   18685   18686   18695   18686   18691
   18686   18687   18686   18699   18687   18688   18687   18689
   18687   18690   18691   18692   18691   18693   18691   18694
   18695   18696   18695   18697   18695   18698   18699   18700
   18699   18701   18699   18702   18702   18703   18702   18704
   18702   18709   18705   18706   18705   18707   18705   18708
   18705   18709   18708   18710   18710   18711   18710   18712
   18710   18715   18713   18714   18713   18765   18713   18715
   18715   18716   18715   18717   18717   18718   18717   18719
   18717   18721   18719   18720   18721   18722   18721   18723
   18723   18724   18723   18725   18725   18726   18725   18727
   18725   18728   18728   18729   18728   18730   18728   18731
   18731   18732   18731   18733   18731   18734   18734   18735
   18734   18736   18734   18737   18737   18738   18737   18739
   18737   18740   18740   18741   18740   18742   18740   18743
   18743   18744   18743   18745   18743   18746   18746   18747
   18746   18748   18746   18749   18749   18750   18749   18751
   18749   18752   18752   18753   18752   18754   18752   18755
   18755   18756   18755   18757   18755   18758   18758   18759
   18758   18760   18758   18761   18761   18762   18761   18763
   18761   18764   18765   18767   18765   18766   18767   18768
   18767   18769   18767   18770   18770   18771   18770   18772
   18770   18773   18773   18774   18773   18775   18773   18776
   18776   18777   18776   18778   18776   18779   18779   18780
   18779   18781   18779   18782   18782   18783   18782   18784
   18782   18785   18785   18786   18785   18787   18785   18788
   18788   18789   18788   18790   18788   18791   18791   18792
   18791   18793   18791   18794   18794   18795   18794   18796
   18794   18797   18797   18798   18797   18799   18797   18800
   18800   18801   18800   18802   18800   18803   18803   18804
   18803   18805   18803   18806   18806   18807   18806   18808
   18806   18809   18809   18810   18809   18811   18809   18812
   18813   18814   18813   18815   18813   18816   18813   18817
   18817   18818   18817   18819   18817   18820   18820   18821
   18820   18822   18820   18827   18823   18826   18823   18824
   18823   18825   18823   18827   18826   18828   18828   18829
   18828   18830   18828   18831   18831   18832   18831   18839
   18831   18833   18833   18834   18834   18836   18834   18835
   18836   18837   18836   18838   18836   18848   18839   18840
   18839   18841   18839   18842   18842   18843   18843   18845
   18843   18844   18845   18846   18845   18847   18845   18895
   18848   18849   18848   18850   18848   18851   18851   18852
   18851   18853   18851   18854   18854   18855   18854   18856
   18854   18857   18857   18858   18857   18859   18857   18860
   18860   18861   18860   18862   18860   18863   18863   18864
   18863   18865   18863   18866   18866   18867   18866   18868
   18868   18869   18868   18870   18870   18871   18870   18872
   18870   18873   18873   18874   18873   18875   18873   18876
   18876   18877   18876   18878   18876   18879   18879   18880
   18879   18881   18879   18882   18882   18883   18882   18884
   18882   18885   18885   18886   18885   18887   18885   18888
   18888   18889   18888   18890   18888   18891   18891   18892
   18891   18893   18891   18894   18895   18896   18895   18897
   18895   18898   18898   18899   18898   18900   18898   18901
   18901   18902   18901   18903   18901   18904   18904   18905
   18904   18906   18904   18907   18907   18908   18907   18909
   18907   18910   18910   18911   18910   18912   18910   18913
   18913   18914   18913   18915   18913   18916   18916   18917
   18916   18918   18916   18919   18919   18920   18919   18921
   18919   18922   18922   18923   18922   18924   18922   18925
   18925   18926   18925   18927   18925   18928   18928   18929
   18928   18930   18928   18931   18931   18932   18931   18933
   18931   18934   18934   18935   18934   18936   18934   18937
   18938   18942   18938   18946   18938   18950   18938   18939
   18939   18940   18939   18941   18939   18954   18942   18943
   18942   18944   18942   18945   18946   18947   18946   18948
   18946   18949   18950   18951   18950   18952   18950   18953
   18954   18955   18954   18956   18954   18960   18957   18961
   18957   18958   18957   18959   18957   18960   18961   18962
   18962   18963   18962   18964   18962   18965   18965   18966
   18965   18973   18965   18967   18967   18968   18968   18970
   18968   18969   18970   18971   18970   18972   18970   18982
   18973   18974   18973   18975   18973   18976   18976   18977
   18977   18979   18977   18978   18979   18980   18979   18981
   18979   19029   18982   18983   18982   18984   18982   18985
   18985   18986   18985   18987   18985   18988   18988   18989
   18988   18990   18988   18991   18991   18992   18991   18993
   18991   18994   18994   18995   18994   18996   18994   18997
   18997   18998   18997   18999   18997   19000   19000   19001
   19000   19002   19002   19003   19002   19004   19004   19005
   19004   19006   19004   19007   19007   19008   19007   19009
   19007   19010   19010   19011   19010   19012   19010   19013
   19013   19014   19013   19015   19013   19016   19016   19017
   19016   19018   19016   19019   19019   19020   19019   19021
   19019   19022   19022   19023   19022   19024   19022   19025
   19025   19026   19025   19027   19025   19028   19029   19030
   19029   19031   19029   19032   19032   19033   19032   19034
   19032   19035   19035   19036   19035   19037   19035   19038
   19038   19039   19038   19040   19038   19041   19041   19042
   19041   19043   19041   19044   19044   19045   19044   19046
   19044   19047   19047   19048   19047   19049   19047   19050
   19050   19051   19050   19052   19050   19053   19053   19054
   19053   19055   19053   19056   19056   19057   19056   19058
   19056   19059   19059   19060   19059   19061   19059   19062
   19062   19063   19062   19064   19062   19065   19065   19066
   19065   19067   19065   19068   19068   19069   19068   19070
   19068   19071   19072   19076   19072   19080   19072   19084
   19072   19073   19073   19074   19073   19075   19073   19088
   19076   19077   19076   19078   19076   19079   19080   19081
   19080   19082   19080   19083   19084   19085   19084   19086
   19084   19087   19088   19089   19088   19090   19088   19094
   19091   19095   19091   19092   19091   19093   19091   19094
   19095   19096   19096   19097   19096   19098   19096   19099
   19099   19100   19099   19107   19099   19101   19101   19102
   19102   19104   19102   19103   19104   19105   19104   19106
   19104   19116   19107   19108   19107   19109   19107   19110
   19110   19111   19111   19113   19111   19112   19113   19114
   19113   19115   19113   19163   19116   19117   19116   19118
   19116   19119   19119   19120   19119   19121   19119   19122
   19122   19123   19122   19124   19122   19125   19125   19126
   19125   19127   19125   19128   19128   19129   19128   19130
   19128   19131   19131   19132   19131   19133   19131   19134
   19134   19135   19134   19136   19136   19137   19136   19138
   19138   19139   19138   19140   19138   19141   19141   19142
   19141   19143   19141   19144   19144   19145   19144   19146
   19144   19147   19147   19148   19147   19149   19147   19150
   19150   19151   19150   19152   19150   19153   19153   19154
   19153   19155   19153   19156   19156   19157   19156   19158
   19156   19159   19159   19160   19159   19161   19159   19162
   19163   19164   19163   19165   19163   19166   19166   19167
   19166   19168   19166   19169   19169   19170   19169   19171
   19169   19172   19172   19173   19172   19174   19172   19175
   19175   19176   19175   19177   19175   19178   19178   19179
   19178   19180   19178   19181   19181   19182   19181   19183
   19181   19184   19184   19185   19184   19186   19184   19187
   19187   19188   19187   19189   19187   19190   19190   19191
   19190   19192   19190   19193   19193   19194   19193   19195
   19193   19196   19196   19197   19196   19198   19196   19199
   19199   19200   19199   19201   19199   19202   19202   19203
   19202   19204   19202   19205   19206   19207   19206   19208
   19206   19209   19206   19210   19210   19211   19210   19212
   19210   19213   19213   19214   19213   19215   19213   19220
   19216   19219   19216   19217   19216   19218   19216   19220
   19219   19221   19221   19222   19221   19223   19221   19224
   19224   19225   19224   19232   19224   19226   19226   19227
   19227   19229   19227   19228   19229   19230   19229   19231
   19229   19241   19232   19233   19232   19234   19232   19235
   19235   19236   19236   19238   19236   19237   19238   19239
   19238   19240   19238   19288   19241   19242   19241   19243
   19241   19244   19244   19245   19244   19246   19244   19247
   19247   19248   19247   19249   19247   19250   19250   19251
   19250   19252   19250   19253   19253   19254   19253   19255
   19253   19256   19256   19257   19256   19258   19256   19259
   19259   19260   19259   19261   19261   19262   19261   19263
   19263   19264   19263   19265   19263   19266   19266   19267
   19266   19268   19266   19269   19269   19270   19269   19271
   19269   19272   19272   19273   19272   19274   19272   19275
   19275   19276   19275   19277   19275   19278   19278   19279
   19278   19280   19278   19281   19281   19282   19281   19283
   19281   19284   19284   19285   19284   19286   19284   19287
   19288   19289   19288   19290   19288   19291   19291   19292
   19291   19293   19291   19294   19294   19295   19294   19296
   19294   19297   19297   19298   19297   19299   19297   19300
   19300   19301   19300   19302   19300   19303   19303   19304
   19303   19305   19303   19306   19306   19307   19306   19308
   19306   19309   19309   19310   19309   19311   19309   19312
   19312   19313   19312   19314   19312   19315   19315   19316
   19315   19317   19315   19318   19318   19319   19318   19320
   19318   19321   19321   19322   19321   19323   19321   19324
   19324   19325   19324   19326   19324   19327   19327   19328
   19327   19329   19327   19330   19331   19335   19331   19339
   19331   19343   19331   19332   19332   19333   19332   19334
   19332   19347   19335   19336   19335   19337   19335   19338
   19339   19340   19339   19341   19339   19342   19343   19344
   19343   19345   19343   19346   19347   19348   19347   19349
   19347   19353   19350   19354   19350   19351   19350   19352
   19350   19353   19354   19355   19355   19356   19355   19357
   19355   19358   19358   19359   19358   19366   19358   19360
   19360   19361   19361   19363   19361   19362   19363   19364
   19363   19365   19363   19375   19366   19367   19366   19368
   19366   19369   19369   19370   19370   19372   19370   19371
   19372   19373   19372   19374   19372   19422   19375   19376
   19375   19377   19375   19378   19378   19379   19378   19380
   19378   19381   19381   19382   19381   19383   19381   19384
   19384   19385   19384   19386   19384   19387   19387   19388
   19387   19389   19387   19390   19390   19391   19390   19392
   19390   19393   19393   19394   19393   19395   19395   19396
   19395   19397   19397   19398   19397   19399   19397   19400
   19400   19401   19400   19402   19400   19403   19403   19404
   19403   19405   19403   19406   19406   19407   19406   19408
   19406   19409   19409   19410   19409   19411   19409   19412
   19412   19413   19412   19414   19412   19415   19415   19416
   19415   19417   19415   19418   19418   19419   19418   19420
   19418   19421   19422   19423   19422   19424   19422   19425
   19425   19426   19425   19427   19425   19428   19428   19429
   19428   19430   19428   19431   19431   19432   19431   19433
   19431   19434   19434   19435   19434   19436   19434   19437
   19437   19438   19437   19439   19437   19440   19440   19441
   19440   19442   19440   19443   19443   19444   19443   19445
   19443   19446   19446   19447   19446   19448   19446   19449
   19449   19450   19449   19451   19449   19452   19452   19453
   19452   19454   19452   19455   19455   19456   19455   19457
   19455   19458   19458   19459   19458   19460   19458   19461
   19461   19462   19461   19463   19461   19464   19465   19466
   19465   19467   19465   19468   19465   19469   19469   19470
   19469   19471   19469   19472   19472   19473   19472   19474
   19472   19479   19475   19478   19475   19476   19475   19477
   19475   19479   19478   19480   19480   19481   19480   19482
   19480   19483   19483   19484   19483   19491   19483   19485
   19485   19486   19486   19488   19486   19487   19488   19489
   19488   19490   19488   19500   19491   19492   19491   19493
   19491   19494   19494   19495   19495   19497   19495   19496
   19497   19498   19497   19499   19497   19547   19500   19501
   19500   19502   19500   19503   19503   19504   19503   19505
   19503   19506   19506   19507   19506   19508   19506   19509
   19509   19510   19509   19511   19509   19512   19512   19513
   19512   19514   19512   19515   19515   19516   19515   19517
   19515   19518   19518   19519   19518   19520   19520   19521
   19520   19522   19522   19523   19522   19524   19522   19525
   19525   19526   19525   19527   19525   19528   19528   19529
   19528   19530   19528   19531   19531   19532   19531   19533
   19531   19534   19534   19535   19534   19536   19534   19537
   19537   19538   19537   19539   19537   19540   19540   19541
   19540   19542   19540   19543   19543   19544   19543   19545
   19543   19546   19547   19548   19547   19549   19547   19550
   19550   19551   19550   19552   19550   19553   19553   19554
   19553   19555   19553   19556   19556   19557   19556   19558
   19556   19559   19559   19560   19559   19561   19559   19562
   19562   19563   19562   19564   19562   19565   19565   19566
   19565   19567   19565   19568   19568   19569   19568   19570
   19568   19571   19571   19572   19571   19573   19571   19574
   19574   19575   19574   19576   19574   19577   19577   19578
   19577   19579   19577   19580   19580   19581   19580   19582
   19580   19583   19583   19584   19583   19585   19583   19586
   19586   19587   19586   19588   19586   19589   19590   19591
   19590   19592   19590   19593   19590   19594   19594   19595
   19594   19596   19594   19597   19597   19598   19597   19599
   19597   19604   19600   19603   19600   19601   19600   19602
   19600   19604   19603   19605   19605   19606   19605   19607
   19605   19608   19608   19609   19608   19616   19608   19610
   19610   19611   19611   19613   19611   19612   19613   19614
   19613   19615   19613   19625   19616   19617   19616   19618
   19616   19619   19619   19620   19620   19622   19620   19621
   19622   19623   19622   19624   19622   19672   19625   19626
   19625   19627   19625   19628   19628   19629   19628   19630
   19628   19631   19631   19632   19631   19633   19631   19634
   19634   19635   19634   19636   19634   19637   19637   19638
   19637   19639   19637   19640   19640   19641   19640   19642
   19640   19643   19643   19644   19643   19645   19645   19646
   19645   19647   19647   19648   19647   19649   19647   19650
   19650   19651   19650   19652   19650   19653   19653   19654
   19653   19655   19653   19656   19656   19657   19656   19658
   19656   19659   19659   19660   19659   19661   19659   19662
   19662   19663   19662   19664   19662   19665   19665   19666
   19665   19667   19665   19668   19668   19669   19668   19670
   19668   19671   19672   19673   19672   19674   19672   19675
   19675   19676   19675   19677   19675   19678   19678   19679
   19678   19680   19678   19681   19681   19682   19681   19683
   19681   19684   19684   19685   19684   19686   19684   19687
   19687   19688   19687   19689   19687   19690   19690   19691
   19690   19692   19690   19693   19693   19694   19693   19695
   19693   19696   19696   19697   19696   19698   19696   19699
   19699   19700   19699   19701   19699   19702   19702   19703
   19702   19704   19702   19705   19705   19706   19705   19707
   19705   19708   19708   19709   19708   19710   19708   19711
   19711   19712   19711   19713   19711   19714   19715   19716
   19715   19717   19715   19718   19715   19719   19719   19720
   19719   19721   19719   19722   19722   19723   19722   19724
   19722   19729   19725   19728   19725   19726   19725   19727
   19725   19729   19728   19730   19730   19731   19730   19732
   19730   19733   19733   19734   19733   19741   19733   19735
   19735   19736   19736   19738   19736   19737   19738   19739
   19738   19740   19738   19750   19741   19742   19741   19743
   19741   19744   19744   19745   19745   19747   19745   19746
   19747   19748   19747   19749   19747   19797   19750   19751
   19750   19752   19750   19753   19753   19754   19753   19755
   19753   19756   19756   19757   19756   19758   19756   19759
   19759   19760   19759   19761   19759   19762   19762   19763
   19762   19764   19762   19765   19765   19766   19765   19767
   19765   19768   19768   19769   19768   19770   19770   19771
   19770   19772   19772   19773   19772   19774   19772   19775
   19775   19776   19775   19777   19775   19778   19778   19779
   19778   19780   19778   19781   19781   19782   19781   19783
   19781   19784   19784   19785   19784   19786   19784   19787
   19787   19788   19787   19789   19787   19790   19790   19791
   19790   19792   19790   19793   19793   19794   19793   19795
   19793   19796   19797   19798   19797   19799   19797   19800
   19800   19801   19800   19802   19800   19803   19803   19804
   19803   19805   19803   19806   19806   19807   19806   19808
   19806   19809   19809   19810   19809   19811   19809   19812
   19812   19813   19812   19814   19812   19815   19815   19816
   19815   19817   19815   19818   19818   19819   19818   19820
   19818   19821   19821   19822   19821   19823   19821   19824
   19824   19825   19824   19826   19824   19827   19827   19828
   19827   19829   19827   19830   19830   19831   19830   19832
   19830   19833   19833   19834   19833   19835   19833   19836
   19836   19837   19836   19838   19836   19839   19840   19849
   19840   19845   19840   19841   19840   19853   19841   19842
   19841   19843   19841   19844   19845   19846   19845   19847
   19845   19848   19849   19850   19849   19851   19849   19852
   19853   19854   19853   19855   19853   19856   19856   19857
   19856   19858   19856   19863   19859   19860   19859   19861
   19859   19862   19859   19863   19862   19864   19864   19865
   19864   19866   19864   19869   19867   19868   19867   19919
   19867   19869   19869   19870   19869   19871   19871   19872
   19871   19873   19871   19875   19873   19874   19875   19876
   19875   19877   19877   19878   19877   19879   19879   19880
   19879   19881   19879   19882   19882   19883   19882   19884
   19882   19885   19885   19886   19885   19887   19885   19888
   19888   19889   19888   19890   19888   19891   19891   19892
   19891   19893   19891   19894   19894   19895   19894   19896
   19894   19897   19897   19898   19897   19899   19897   19900
   19900   19901   19900   19902   19900   19903   19903   19904
   19903   19905   19903   19906   19906   19907   19906   19908
   19906   19909   19909   19910   19909   19911   19909   19912
   19912   19913   19912   19914   19912   19915   19915   19916
   19915   19917   19915   19918   19919   19921   19919   19920
   19921   19922   19921   19923   19921   19924   19924   19925
   19924   19926   19924   19927   19927   19928   19927   19929
   19927   19930   19930   19931   19930   19932   19930   19933
   19933   19934   19933   19935   19933   19936   19936   19937
   19936   19938   19936   19939   19939   19940   19939   19941
   19939   19942   19942   19943   19942   19944   19942   19945
   19945   19946   19945   19947   19945   19948   19948   19949
   19948   19950   19948   19951   19951   19952   19951   19953
   19951   19954   19954   19955   19954   19956   19954   19957
   19957   19958   19957   19959   19957   19960   19960   19961
   19960   19962   19960   19963   19963   19964   19963   19965
   19963   19966   19967   19976   19967   19972   19967   19968
   19967   19980   19968   19969   19968   19970   19968   19971
   19972   19973   19972   19974   19972   19975   19976   19977
   19976   19978   19976   19979   19980   19981   19980   19982
   19980   19983   19983   19984   19983   19985   19983   19990
   19986   19987   19986   19988   19986   19989   19986   19990
   19989   19991   19991   19992   19991   19993   19991   19996
   19994   19995   19994   20046   19994   19996   19996   19997
   19996   19998   19998   19999   19998   20000   19998   20002
   20000   20001   20002   20003   20002   20004   20004   20005
   20004   20006   20006   20007   20006   20008   20006   20009
   20009   20010   20009   20011   20009   20012   20012   20013
   20012   20014   20012   20015   20015   20016   20015   20017
   20015   20018   20018   20019   20018   20020   20018   20021
   20021   20022   20021   20023   20021   20024   20024   20025
   20024   20026   20024   20027   20027   20028   20027   20029
   20027   20030   20030   20031   20030   20032   20030   20033
   20033   20034   20033   20035   20033   20036   20036   20037
   20036   20038   20036   20039   20039   20040   20039   20041
   20039   20042   20042   20043   20042   20044   20042   20045
   20046   20048   20046   20047   20048   20049   20048   20050
   20048   20051   20051   20052   20051   20053   20051   20054
   20054   20055   20054   20056   20054   20057   20057   20058
   20057   20059   20057   20060   20060   20061   20060   20062
   20060   20063   20063   20064   20063   20065   20063   20066
   20066   20067   20066   20068   20066   20069   20069   20070
   20069   20071   20069   20072   20072   20073   20072   20074
   20072   20075   20075   20076   20075   20077   20075   20078
   20078   20079   20078   20080   20078   20081   20081   20082
   20081   20083   20081   20084   20084   20085   20084   20086
   20084   20087   20087   20088   20087   20089   20087   20090
   20090   20091   20090   20092   20090   20093   20094   20095
   20094   20096   20094   20097   20094   20098   20098   20099
   20098   20100   20098   20101   20101   20102   20101   20103
   20101   20108   20104   20107   20104   20105   20104   20106
   20104   20108   20107   20109   20109   20110   20109   20111
   20109   20112   20112   20113   20112   20120   20112   20114
   20114   20115   20115   20117   20115   20116   20117   20118
   20117   20119   20117   20129   20120   20121   20120   20122
   20120   20123   20123   20124   20124   20126   20124   20125
   20126   20127   20126   20128   20126   20176   20129   20130
   20129   20131   20129   20132   20132   20133   20132   20134
   20132   20135   20135   20136   20135   20137   20135   20138
   20138   20139   20138   20140   20138   20141   20141   20142
   20141   20143   20141   20144   20144   20145   20144   20146
   20144   20147   20147   20148   20147   20149   20149   20150
   20149   20151   20151   20152   20151   20153   20151   20154
   20154   20155   20154   20156   20154   20157   20157   20158
   20157   20159   20157   20160   20160   20161   20160   20162
   20160   20163   20163   20164   20163   20165   20163   20166
   20166   20167   20166   20168   20166   20169   20169   20170
   20169   20171   20169   20172   20172   20173   20172   20174
   20172   20175   20176   20177   20176   20178   20176   20179
   20179   20180   20179   20181   20179   20182   20182   20183
   20182   20184   20182   20185   20185   20186   20185   20187
   20185   20188   20188   20189   20188   20190   20188   20191
   20191   20192   20191   20193   20191   20194   20194   20195
   20194   20196   20194   20197   20197   20198   20197   20199
   20197   20200   20200   20201   20200   20202   20200   20203
   20203   20204   20203   20205   20203   20206   20206   20207
   20206   20208   20206   20209   20209   20210   20209   20211
   20209   20212   20212   20213   20212   20214   20212   20215
   20215   20216   20215   20217   20215   20218   20219   20220
   20219   20221   20219   20222   20219   20223   20223   20224
   20223   20225   20223   20226   20226   20227   20226   20228
   20226   20233   20229   20232   20229   20230   20229   20231
   20229   20233   20232   20234   20234   20235   20234   20236
   20234   20237   20237   20238   20237   20245   20237   20239
   20239   20240   20240   20242   20240   20241   20242   20243
   20242   20244   20242   20254   20245   20246   20245   20247
   20245   20248   20248   20249   20249   20251   20249   20250
   20251   20252   20251   20253   20251   20301   20254   20255
   20254   20256   20254   20257   20257   20258   20257   20259
   20257   20260   20260   20261   20260   20262   20260   20263
   20263   20264   20263   20265   20263   20266   20266   20267
   20266   20268   20266   20269   20269   20270   20269   20271
   20269   20272   20272   20273   20272   20274   20274   20275
   20274   20276   20276   20277   20276   20278   20276   20279
   20279   20280   20279   20281   20279   20282   20282   20283
   20282   20284   20282   20285   20285   20286   20285   20287
   20285   20288   20288   20289   20288   20290   20288   20291
   20291   20292   20291   20293   20291   20294   20294   20295
   20294   20296   20294   20297   20297   20298   20297   20299
   20297   20300   20301   20302   20301   20303   20301   20304
   20304   20305   20304   20306   20304   20307   20307   20308
   20307   20309   20307   20310   20310   20311   20310   20312
   20310   20313   20313   20314   20313   20315   20313   20316
   20316   20317   20316   20318   20316   20319   20319   20320
   20319   20321   20319   20322   20322   20323   20322   20324
   20322   20325   20325   20326   20325   20327   20325   20328
   20328   20329   20328   20330   20328   20331   20331   20332
   20331   20333   20331   20334   20334   20335   20334   20336
   20334   20337   20337   20338   20337   20339   20337   20340
   20340   20341   20340   20342   20340   20343   20344   20353
   20344   20349   20344   20345   20344   20357   20345   20346
   20345   20347   20345   20348   20349   20350   20349   20351
   20349   20352   20353   20354   20353   20355   20353   20356
   20357   20358   20357   20359   20357   20360   20360   20361
   20360   20362   20360   20367   20363   20364   20363   20365
   20363   20366   20363   20367   20366   20368   20368   20369
   20368   20370   20368   20373   20371   20372   20371   20423
   20371   20373   20373   20374   20373   20375   20375   20376
   20375   20377   20375   20379   20377   20378   20379   20380
   20379   20381   20381   20382   20381   20383   20383   20384
   20383   20385   20383   20386   20386   20387   20386   20388
   20386   20389   20389   20390   20389   20391   20389   20392
   20392   20393   20392   20394   20392   20395   20395   20396
   20395   20397   20395   20398   20398   20399   20398   20400
   20398   20401   20401   20402   20401   20403   20401   20404
   20404   20405   20404   20406   20404   20407   20407   20408
   20407   20409   20407   20410   20410   20411   20410   20412
   20410   20413   20413   20414   20413   20415   20413   20416
   20416   20417   20416   20418   20416   20419   20419   20420
   20419   20421   20419   20422   20423   20425   20423   20424
   20425   20426   20425   20427   20425   20428   20428   20429
   20428   20430   20428   20431   20431   20432   20431   20433
   20431   20434   20434   20435   20434   20436   20434   20437
   20437   20438   20437   20439   20437   20440   20440   20441
   20440   20442   20440   20443   20443   20444   20443   20445
   20443   20446   20446   20447   20446   20448   20446   20449
   20449   20450   20449   20451   20449   20452   20452   20453
   20452   20454   20452   20455   20455   20456   20455   20457
   20455   20458   20458   20459   20458   20460   20458   20461
   20461   20462   20461   20463   20461   20464   20464   20465
   20464   20466   20464   20467   20467   20468   20467   20469
   20467   20470   20471   20472   20471   20473   20471   20474
   20471   20475   20475   20476   20475   20480   20475   20477
   20477   20478   20477   20479   20480   20481   20480   20482
   20480   20486   20483   20487   20483   20484   20483   20485
   20483   20486   20487   20488   20488   20489   20488   20490
   20488   20491   20491   20492   20491   20499   20491   20493
   20493   20494   20494   20496   20494   20495   20496   20497
   20496   20498   20496   20508   20499   20500   20499   20501
   20499   20502   20502   20503   20503   20505   20503   20504
   20505   20506   20505   20507   20505   20555   20508   20509
   20508   20510   20508   20511   20511   20512   20511   20513
   20511   20514   20514   20515   20514   20516   20514   20517
   20517   20518   20517   20519   20517   20520   20520   20521
   20520   20522   20520   20523   20523   20524   20523   20525
   20523   20526   20526   20527   20526   20528   20528   20529
   20528   20530   20530   20531   20530   20532   20530   20533
   20533   20534   20533   20535   20533   20536   20536   20537
   20536   20538   20536   20539   20539   20540   20539   20541
   20539   20542   20542   20543   20542   20544   20542   20545
   20545   20546   20545   20547   20545   20548   20548   20549
   20548   20550   20548   20551   20551   20552   20551   20553
   20551   20554   20555   20556   20555   20557   20555   20558
   20558   20559   20558   20560   20558   20561   20561   20562
   20561   20563   20561   20564   20564   20565   20564   20566
   20564   20567   20567   20568   20567   20569   20567   20570
   20570   20571   20570   20572   20570   20573   20573   20574
   20573   20575   20573   20576   20576   20577   20576   20578
   20576   20579   20579   20580   20579   20581   20579   20582
   20582   20583   20582   20584   20582   20585   20585   20586
   20585   20587   20585   20588   20588   20589   20588   20590
   20588   20591   20591   20592   20591   20593   20591   20594
   20594   20595   20594   20596   20594   20597   20598   20599
   20598   20600   20598   20601   20598   20602   20602   20603
   20602   20604   20602   20605   20605   20606   20605   20607
   20605   20612   20608   20611   20608   20609   20608   20610
   20608   20612   20611   20613   20613   20614   20613   20615
   20613   20616   20616   20617   20616   20624   20616   20618
   20618   20619   20619   20621   20619   20620   20621   20622
   20621   20623   20621   20633   20624   20625   20624   20626
   20624   20627   20627   20628   20628   20630   20628   20629
   20630   20631   20630   20632   20630   20680   20633   20634
   20633   20635   20633   20636   20636   20637   20636   20638
   20636   20639   20639   20640   20639   20641   20639   20642
   20642   20643   20642   20644   20642   20645   20645   20646
   20645   20647   20645   20648   20648   20649   20648   20650
   20648   20651   20651   20652   20651   20653   20653   20654
   20653   20655   20655   20656   20655   20657   20655   20658
   20658   20659   20658   20660   20658   20661   20661   20662
   20661   20663   20661   20664   20664   20665   20664   20666
   20664   20667   20667   20668   20667   20669   20667   20670
   20670   20671   20670   20672   20670   20673   20673   20674
   20673   20675   20673   20676   20676   20677   20676   20678
   20676   20679   20680   20681   20680   20682   20680   20683
   20683   20684   20683   20685   20683   20686   20686   20687
   20686   20688   20686   20689   20689   20690   20689   20691
   20689   20692   20692   20693   20692   20694   20692   20695
   20695   20696   20695   20697   20695   20698   20698   20699
   20698   20700   20698   20701   20701   20702   20701   20703
   20701   20704   20704   20705   20704   20706   20704   20707
   20707   20708   20707   20709   20707   20710   20710   20711
   20710   20712   20710   20713   20713   20714   20713   20715
   20713   20716   20716   20717   20716   20718   20716   20719
   20719   20720   20719   20721   20719   20722   20723   20727
   20723   20731   20723   20735   20723   20724   20724   20725
   20724   20726   20724   20739   20727   20728   20727   20729
   20727   20730   20731   20732   20731   20733   20731   20734
   20735   20736   20735   20737   20735   20738   20739   20740
   20739   20741   20739   20745   20742   20746   20742   20743
   20742   20744   20742   20745   20746   20747   20747   20748
   20747   20749   20747   20750   20750   20751   20750   20758
   20750   20752   20752   20753   20753   20755   20753   20754
   20755   20756   20755   20757   20755   20767   20758   20759
   20758   20760   20758   20761   20761   20762   20762   20764
   20762   20763   20764   20765   20764   20766   20764   20814
   20767   20768   20767   20769   20767   20770   20770   20771
   20770   20772   20770   20773   20773   20774   20773   20775
   20773   20776   20776   20777   20776   20778   20776   20779
   20779   20780   20779   20781   20779   20782   20782   20783
   20782   20784   20782   20785   20785   20786   20785   20787
   20787   20788   20787   20789   20789   20790   20789   20791
   20789   20792   20792   20793   20792   20794   20792   20795
   20795   20796   20795   20797   20795   20798   20798   20799
   20798   20800   20798   20801   20801   20802   20801   20803
   20801   20804   20804   20805   20804   20806   20804   20807
   20807   20808   20807   20809   20807   20810   20810   20811
   20810   20812   20810   20813   20814   20815   20814   20816
   20814   20817   20817   20818   20817   20819   20817   20820
   20820   20821   20820   20822   20820   20823   20823   20824
   20823   20825   20823   20826   20826   20827   20826   20828
   20826   20829   20829   20830   20829   20831   20829   20832
   20832   20833   20832   20834   20832   20835   20835   20836
   20835   20837   20835   20838   20838   20839   20838   20840
   20838   20841   20841   20842   20841   20843   20841   20844
   20844   20845   20844   20846   20844   20847   20847   20848
   20847   20849   20847   20850   20850   20851   20850   20852
   20850   20853   20853   20854   20853   20855   20853   20856
   20857   20858   20857   20859   20857   20860   20857   20861
   20861   20862   20861   20863   20861   20864   20864   20865
   20864   20866   20864   20871   20867   20870   20867   20868
   20867   20869   20867   20871   20870   20872   20872   20873
   20872   20874   20872   20875   20875   20876   20875   20883
   20875   20877   20877   20878   20878   20880   20878   20879
   20880   20881   20880   20882   20880   20892   20883   20884
   20883   20885   20883   20886   20886   20887   20887   20889
   20887   20888   20889   20890   20889   20891   20889   20939
   20892   20893   20892   20894   20892   20895   20895   20896
   20895   20897   20895   20898   20898   20899   20898   20900
   20898   20901   20901   20902   20901   20903   20901   20904
   20904   20905   20904   20906   20904   20907   20907   20908
   20907   20909   20907   20910   20910   20911   20910   20912
   20912   20913   20912   20914   20914   20915   20914   20916
   20914   20917   20917   20918   20917   20919   20917   20920
   20920   20921   20920   20922   20920   20923   20923   20924
   20923   20925   20923   20926   20926   20927   20926   20928
   20926   20929   20929   20930   20929   20931   20929   20932
   20932   20933   20932   20934   20932   20935   20935   20936
   20935   20937   20935   20938   20939   20940   20939   20941
   20939   20942   20942   20943   20942   20944   20942   20945
   20945   20946   20945   20947   20945   20948   20948   20949
   20948   20950   20948   20951   20951   20952   20951   20953
   20951   20954   20954   20955   20954   20956   20954   20957
   20957   20958   20957   20959   20957   20960   20960   20961
   20960   20962   20960   20963   20963   20964   20963   20965
   20963   20966   20966   20967   20966   20968   20966   20969
   20969   20970   20969   20971   20969   20972   20972   20973
   20972   20974   20972   20975   20975   20976   20975   20977
   20975   20978   20978   20979   20978   20980   20978   20981
   20982   20986   20982   20990   20982   20994   20982   20983
   20983   20984   20983   20985   20983   20998   20986   20987
   20986   20988   20986   20989   20990   20991   20990   20992
   20990   20993   20994   20995   20994   20996   20994   20997
   20998   20999   20998   21000   20998   21004   21001   21005
   21001   21002   21001   21003   21001   21004   21005   21006
   21006   21007   21006   21008   21006   21009   21009   21010
   21009   21017   21009   21011   21011   21012   21012   21014
   21012   21013   21014   21015   21014   21016   21014   21026
   21017   21018   21017   21019   21017   21020   21020   21021
   21021   21023   21021   21022   21023   21024   21023   21025
   21023   21073   21026   21027   21026   21028   21026   21029
   21029   21030   21029   21031   21029   21032   21032   21033
   21032   21034   21032   21035   21035   21036   21035   21037
   21035   21038   21038   21039   21038   21040   21038   21041
   21041   21042   21041   21043   21041   21044   21044   21045
   21044   21046   21046   21047   21046   21048   21048   21049
   21048   21050   21048   21051   21051   21052   21051   21053
   21051   21054   21054   21055   21054   21056   21054   21057
   21057   21058   21057   21059   21057   21060   21060   21061
   21060   21062   21060   21063   21063   21064   21063   21065
   21063   21066   21066   21067   21066   21068   21066   21069
   21069   21070   21069   21071   21069   21072   21073   21074
   21073   21075   21073   21076   21076   21077   21076   21078
   21076   21079   21079   21080   21079   21081   21079   21082
   21082   21083   21082   21084   21082   21085   21085   21086
   21085   21087   21085   21088   21088   21089   21088   21090
   21088   21091   21091   21092   21091   21093   21091   21094
   21094   21095   21094   21096   21094   21097   21097   21098
   21097   21099   21097   21100   21100   21101   21100   21102
   21100   21103   21103   21104   21103   21105   21103   21106
   21106   21107   21106   21108   21106   21109   21109   21110
   21109   21111   21109   21112   21112   21113   21112   21114
   21112   21115   21116   21120   21116   21124   21116   21128
   21116   21117   21117   21118   21117   21119   21117   21132
   21120   21121   21120   21122   21120   21123   21124   21125
   21124   21126   21124   21127   21128   21129   21128   21130
   21128   21131   21132   21133   21132   21134   21132   21138
   21135   21139   21135   21136   21135   21137   21135   21138
   21139   21140   21140   21141   21140   21142   21140   21143
   21143   21144   21143   21151   21143   21145   21145   21146
   21146   21148   21146   21147   21148   21149   21148   21150
   21148   21160   21151   21152   21151   21153   21151   21154
   21154   21155   21155   21157   21155   21156   21157   21158
   21157   21159   21157   21207   21160   21161   21160   21162
   21160   21163   21163   21164   21163   21165   21163   21166
   21166   21167   21166   21168   21166   21169   21169   21170
   21169   21171   21169   21172   21172   21173   21172   21174
   21172   21175   21175   21176   21175   21177   21175   21178
   21178   21179   21178   21180   21180   21181   21180   21182
   21182   21183   21182   21184   21182   21185   21185   21186
   21185   21187   21185   21188   21188   21189   21188   21190
   21188   21191   21191   21192   21191   21193   21191   21194
   21194   21195   21194   21196   21194   21197   21197   21198
   21197   21199   21197   21200   21200   21201   21200   21202
   21200   21203   21203   21204   21203   21205   21203   21206
   21207   21208   21207   21209   21207   21210   21210   21211
   21210   21212   21210   21213   21213   21214   21213   21215
   21213   21216   21216   21217   21216   21218   21216   21219
   21219   21220   21219   21221   21219   21222   21222   21223
   21222   21224   21222   21225   21225   21226   21225   21227
   21225   21228   21228   21229   21228   21230   21228   21231
   21231   21232   21231   21233   21231   21234   21234   21235
   21234   21236   21234   21237   21237   21238   21237   21239
   21237   21240   21240   21241   21240   21242   21240   21243
   21243   21244   21243   21245   21243   21246   21246   21247
   21246   21248   21246   21249   21250   21259   21250   21255
   21250   21251   21250   21263   21251   21252   21251   21253
   21251   21254   21255   21256   21255   21257   21255   21258
   21259   21260   21259   21261   21259   21262   21263   21264
   21263   21265   21263   21266   21266   21267   21266   21268
   21266   21273   21269   21270   21269   21271   21269   21272
   21269   21273   21272   21274   21274   21275   21274   21276
   21274   21279   21277   21278   21277   21329   21277   21279
   21279   21280   21279   21281   21281   21282   21281   21283
   21281   21285   21283   21284   21285   21286   21285   21287
   21287   21288   21287   21289   21289   21290   21289   21291
   21289   21292   21292   21293   21292   21294   21292   21295
   21295   21296   21295   21297   21295   21298   21298   21299
   21298   21300   21298   21301   21301   21302   21301   21303
   21301   21304   21304   21305   21304   21306   21304   21307
   21307   21308   21307   21309   21307   21310   21310   21311
   21310   21312   21310   21313   21313   21314   21313   21315
   21313   21316   21316   21317   21316   21318   21316   21319
   21319   21320   21319   21321   21319   21322   21322   21323
   21322   21324   21322   21325   21325   21326   21325   21327
   21325   21328   21329   21331   21329   21330   21331   21332
   21331   21333   21331   21334   21334   21335   21334   21336
   21334   21337   21337   21338   21337   21339   21337   21340
   21340   21341   21340   21342   21340   21343   21343   21344
   21343   21345   21343   21346   21346   21347   21346   21348
   21346   21349   21349   21350   21349   21351   21349   21352
   21352   21353   21352   21354   21352   21355   21355   21356
   21355   21357   21355   21358   21358   21359   21358   21360
   21358   21361   21361   21362   21361   21363   21361   21364
   21364   21365   21364   21366   21364   21367   21367   21368
   21367   21369   21367   21370   21370   21371   21370   21372
   21370   21373   21373   21374   21373   21375   21373   21376
   21377   21379   21377   21378   21377   21423   21377   21381
   21379   21380   21381   21382   21381   21383   21381   21384
   21384   21415   21384   21385   21385   21386   21385   21387
   21387   21388   21387   21389   21387   21390   21390   21391
   21390   21413   21390   21392   21392   21393   21392   21402
   21392   21394   21394   21395   21394   21396   21394   21397
   21397   21398   21397   21399   21397   21400   21400   21401
   21400   21402   21400   21426   21402   21407   21402   21403
   21403   21404   21403   21405   21403   21406   21407   21408
   21407   21409   21407   21410   21410   21411   21410   21412
   21410   21413   21413   21414   21413   21415   21415   21420
   21415   21416   21416   21417   21416   21418   21416   21419
   21420   21421   21420   21422   21420   21423   21423   21424
   21423   21425   21426   21427   21426   21428   21426   21432
   21428   21429   21428   21430   21428   21431   21432   21433
   21432   21434   21432   21435   21435   21436   21435   21437
   21435   21438   21438   21439   21438   21440   21438   21441
   21441   21442   21441   21443   21441   21447   21443   21444
   21443   21445   21443   21446   21447   21448   21447   21449
   21447   21450   21451   21453   21451   21452   21451   21497
   21451   21455   21453   21454   21455   21456   21455   21457
   21455   21458   21458   21489   21458   21459   21459   21460
   21459   21461   21461   21462   21461   21463   21461   21464
   21464   21465   21464   21487   21464   21466   21466   21467
   21466   21476   21466   21468   21468   21469   21468   21470
   21468   21471   21471   21472   21471   21473   21471   21474
   21474   21475   21474   21476   21474   21500   21476   21481
   21476   21477   21477   21478   21477   21479   21477   21480
   21481   21482   21481   21483   21481   21484   21484   21485
   21484   21486   21484   21487   21487   21488   21487   21489
   21489   21494   21489   21490   21490   21491   21490   21492
   21490   21493   21494   21495   21494   21496   21494   21497
   21497   21498   21497   21499   21500   21501   21500   21502
   21500   21506   21502   21503   21502   21504   21502   21505
   21506   21507   21506   21508   21506   21509   21509   21510
   21509   21511   21509   21512   21512   21513   21512   21514
   21512   21515   21515   21516   21515   21517   21515   21521
   21517   21518   21517   21519   21517   21520   21521   21522
   21521   21523   21521   21524   21525   21527   21525   21526
   21525   21571   21525   21529   21527   21528   21529   21530
   21529   21531   21529   21532   21532   21563   21532   21533
   21533   21534   21533   21535   21535   21536   21535   21537
   21535   21538   21538   21539   21538   21561   21538   21540
   21540   21541   21540   21550   21540   21542   21542   21543
   21542   21544   21542   21545   21545   21546   21545   21547
   21545   21548   21548   21549   21548   21550   21548   21574
   21550   21555   21550   21551   21551   21552   21551   21553
   21551   21554   21555   21556   21555   21557   21555   21558
   21558   21559   21558   21560   21558   21561   21561   21562
   21561   21563   21563   21568   21563   21564   21564   21565
   21564   21566   21564   21567   21568   21569   21568   21570
   21568   21571   21571   21572   21571   21573   21574   21575
   21574   21576   21574   21580   21576   21577   21576   21578
   21576   21579   21580   21581   21580   21582   21580   21583
   21583   21584   21583   21585   21583   21586   21586   21587
   21586   21588   21586   21589   21589   21590   21589   21591
   21589   21595   21591   21592   21591   21593   21591   21594
   21595   21596   21595   21597   21595   21598   21599   21601
   21599   21600   21599   21645   21599   21603   21601   21602
   21603   21604   21603   21605   21603   21606   21606   21637
   21606   21607   21607   21608   21607   21609   21609   21610
   21609   21611   21609   21612   21612   21613   21612   21635
   21612   21614   21614   21615   21614   21624   21614   21616
   21616   21617   21616   21618   21616   21619   21619   21620
   21619   21621   21619   21622   21622   21623   21622   21624
   21622   21648   21624   21629   21624   21625   21625   21626
   21625   21627   21625   21628   21629   21630   21629   21631
   21629   21632   21632   21633   21632   21634   21632   21635
   21635   21636   21635   21637   21637   21642   21637   21638
   21638   21639   21638   21640   21638   21641   21642   21643
   21642   21644   21642   21645   21645   21646   21645   21647
   21648   21649   21648   21650   21648   21654   21650   21651
   21650   21652   21650   21653   21654   21655   21654   21656
   21654   21657   21657   21658   21657   21659   21657   21660
   21660   21661   21660   21662   21660   21663   21663   21664
   21663   21665   21663   21669   21665   21666   21665   21667
   21665   21668   21669   21670   21669   21671   21669   21672
   21673   21675   21673   21674   21673   21719   21673   21677
   21675   21676   21677   21678   21677   21679   21677   21680
   21680   21711   21680   21681   21681   21682   21681   21683
   21683   21684   21683   21685   21683   21686   21686   21687
   21686   21709   21686   21688   21688   21689   21688   21698
   21688   21690   21690   21691   21690   21692   21690   21693
   21693   21694   21693   21695   21693   21696   21696   21697
   21696   21698   21696   21722   21698   21703   21698   21699
   21699   21700   21699   21701   21699   21702   21703   21704
   21703   21705   21703   21706   21706   21707   21706   21708
   21706   21709   21709   21710   21709   21711   21711   21716
   21711   21712   21712   21713   21712   21714   21712   21715
   21716   21717   21716   21718   21716   21719   21719   21720
   21719   21721   21722   21723   21722   21724   21722   21728
   21724   21725   21724   21726   21724   21727   21728   21729
   21728   21730   21728   21731   21731   21732   21731   21733
   21731   21734   21734   21735   21734   21736   21734   21737
   21737   21738   21737   21739   21737   21743   21739   21740
   21739   21741   21739   21742   21743   21744   21743   21745
   21743   21746   21747   21749   21747   21748   21747   21793
   21747   21751   21749   21750   21751   21752   21751   21753
   21751   21754   21754   21785   21754   21755   21755   21756
   21755   21757   21757   21758   21757   21759   21757   21760
   21760   21761   21760   21783   21760   21762   21762   21763
   21762   21772   21762   21764   21764   21765   21764   21766
   21764   21767   21767   21768   21767   21769   21767   21770
   21770   21771   21770   21772   21770   21796   21772   21777
   21772   21773   21773   21774   21773   21775   21773   21776
   21777   21778   21777   21779   21777   21780   21780   21781
   21780   21782   21780   21783   21783   21784   21783   21785
   21785   21790   21785   21786   21786   21787   21786   21788
   21786   21789   21790   21791   21790   21792   21790   21793
   21793   21794   21793   21795   21796   21797   21796   21798
   21796   21802   21798   21799   21798   21800   21798   21801
   21802   21803   21802   21804   21802   21805   21805   21806
   21805   21807   21805   21808   21808   21809   21808   21810
   21808   21811   21811   21812   21811   21813   21811   21817
   21813   21814   21813   21815   21813   21816   21817   21818
   21817   21819   21817   21820   21821   21823   21821   21822
   21821   21867   21821   21825   21823   21824   21825   21826
   21825   21827   21825   21828   21828   21859   21828   21829
   21829   21830   21829   21831   21831   21832   21831   21833
   21831   21834   21834   21835   21834   21857   21834   21836
   21836   21837   21836   21846   21836   21838   21838   21839
   21838   21840   21838   21841   21841   21842   21841   21843
   21841   21844   21844   21845   21844   21846   21844   21870
   21846   21851   21846   21847   21847   21848   21847   21849
   21847   21850   21851   21852   21851   21853   21851   21854
   21854   21855   21854   21856   21854   21857   21857   21858
   21857   21859   21859   21864   21859   21860   21860   21861
   21860   21862   21860   21863   21864   21865   21864   21866
   21864   21867   21867   21868   21867   21869   21870   21871
   21870   21872   21870   21876   21872   21873   21872   21874
   21872   21875   21876   21877   21876   21878   21876   21879
   21879   21880   21879   21881   21879   21882   21882   21883
   21882   21884   21882   21885   21885   21886   21885   21887
   21885   21891   21887   21888   21887   21889   21887   21890
   21891   21892   21891   21893   21891   21894   21895   21897
   21895   21896   21895   21941   21895   21899   21897   21898
   21899   21900   21899   21901   21899   21902   21902   21933
   21902   21903   21903   21904   21903   21905   21905   21906
   21905   21907   21905   21908   21908   21909   21908   21931
   21908   21910   21910   21911   21910   21920   21910   21912
   21912   21913   21912   21914   21912   21915   21915   21916
   21915   21917   21915   21918   21918   21919   21918   21920
   21918   21944   21920   21925   21920   21921   21921   21922
   21921   21923   21921   21924   21925   21926   21925   21927
   21925   21928   21928   21929   21928   21930   21928   21931
   21931   21932   21931   21933   21933   21938   21933   21934
   21934   21935   21934   21936   21934   21937   21938   21939
   21938   21940   21938   21941   21941   21942   21941   21943
   21944   21945   21944   21946   21944   21950   21946   21947
   21946   21948   21946   21949   21950   21951   21950   21952
   21950   21953   21953   21954   21953   21955   21953   21956
   21956   21957   21956   21958   21956   21959   21959   21960
   21959   21961   21959   21965   21961   21962   21961   21963
   21961   21964   21965   21966   21965   21967   21965   21968
   21969   21971   21969   21970   21969   22015   21969   21973
   21971   21972   21973   21974   21973   21975   21973   21976
   21976   22007   21976   21977   21977   21978   21977   21979
   21979   21980   21979   21981   21979   21982   21982   21983
   21982   22005   21982   21984   21984   21985   21984   21994
   21984   21986   21986   21987   21986   21988   21986   21989
   21989   21990   21989   21991   21989   21992   21992   21993
   21992   21994   21992   22018   21994   21999   21994   21995
   21995   21996   21995   21997   21995   21998   21999   22000
   21999   22001   21999   22002   22002   22003   22002   22004
   22002   22005   22005   22006   22005   22007   22007   22012
   22007   22008   22008   22009   22008   22010   22008   22011
   22012   22013   22012   22014   22012   22015   22015   22016
   22015   22017   22018   22019   22018   22020   22018   22024
   22020   22021   22020   22022   22020   22023   22024   22025
   22024   22026   22024   22027   22027   22028   22027   22029
   22027   22030   22030   22031   22030   22032   22030   22033
   22033   22034   22033   22035   22033   22039   22035   22036
   22035   22037   22035   22038   22039   22040   22039   22041
   22039   22042   22043   22045   22043   22044   22043   22089
   22043   22047   22045   22046   22047   22048   22047   22049
   22047   22050   22050   22081   22050   22051   22051   22052
   22051   22053   22053   22054   22053   22055   22053   22056
   22056   22057   22056   22079   22056   22058   22058   22059
   22058   22068   22058   22060   22060   22061   22060   22062
   22060   22063   22063   22064   22063   22065   22063   22066
   22066   22067   22066   22068   22066   22092   22068   22073
   22068   22069   22069   22070   22069   22071   22069   22072
   22073   22074   22073   22075   22073   22076   22076   22077
   22076   22078   22076   22079   22079   22080   22079   22081
   22081   22086   22081   22082   22082   22083   22082   22084
   22082   22085   22086   22087   22086   22088   22086   22089
   22089   22090   22089   22091   22092   22093   22092   22094
   22092   22098   22094   22095   22094   22096   22094   22097
   22098   22099   22098   22100   22098   22101   22101   22102
   22101   22103   22101   22104   22104   22105   22104   22106
   22104   22107   22107   22108   22107   22109   22107   22113
   22109   22110   22109   22111   22109   22112   22113   22114
   22113   22115   22113   22116   22117   22119   22117   22118
   22117   22163   22117   22121   22119   22120   22121   22122
   22121   22123   22121   22124   22124   22155   22124   22125
   22125   22126   22125   22127   22127   22128   22127   22129
   22127   22130   22130   22131   22130   22153   22130   22132
   22132   22133   22132   22142   22132   22134   22134   22135
   22134   22136   22134   22137   22137   22138   22137   22139
   22137   22140   22140   22141   22140   22142   22140   22166
   22142   22147   22142   22143   22143   22144   22143   22145
   22143   22146   22147   22148   22147   22149   22147   22150
   22150   22151   22150   22152   22150   22153   22153   22154
   22153   22155   22155   22160   22155   22156   22156   22157
   22156   22158   22156   22159   22160   22161   22160   22162
   22160   22163   22163   22164   22163   22165   22166   22167
   22166   22168   22166   22172   22168   22169   22168   22170
   22168   22171   22172   22173   22172   22174   22172   22175
   22175   22176   22175   22177   22175   22178   22178   22179
   22178   22180   22178   22181   22181   22182   22181   22183
   22181   22187   22183   22184   22183   22185   22183   22186
   22187   22188   22187   22189   22187   22190   22191   22193
   22191   22192   22191   22237   22191   22195   22193   22194
   22195   22196   22195   22197   22195   22198   22198   22229
   22198   22199   22199   22200   22199   22201   22201   22202
   22201   22203   22201   22204   22204   22205   22204   22227
   22204   22206   22206   22207   22206   22216   22206   22208
   22208   22209   22208   22210   22208   22211   22211   22212
   22211   22213   22211   22214   22214   22215   22214   22216
   22214   22240   22216   22221   22216   22217   22217   22218
   22217   22219   22217   22220   22221   22222   22221   22223
   22221   22224   22224   22225   22224   22226   22224   22227
   22227   22228   22227   22229   22229   22234   22229   22230
   22230   22231   22230   22232   22230   22233   22234   22235
   22234   22236   22234   22237   22237   22238   22237   22239
   22240   22241   22240   22242   22240   22246   22242   22243
   22242   22244   22242   22245   22246   22247   22246   22248
   22246   22249   22249   22250   22249   22251   22249   22252
   22252   22253   22252   22254   22252   22255   22255   22256
   22255   22257   22255   22261   22257   22258   22257   22259
   22257   22260   22261   22262   22261   22263   22261   22264
   22265   22267   22265   22266   22265   22311   22265   22269
   22267   22268   22269   22270   22269   22271   22269   22272
   22272   22303   22272   22273   22273   22274   22273   22275
   22275   22276   22275   22277   22275   22278   22278   22279
   22278   22301   22278   22280   22280   22281   22280   22290
   22280   22282   22282   22283   22282   22284   22282   22285
   22285   22286   22285   22287   22285   22288   22288   22289
   22288   22290   22288   22314   22290   22295   22290   22291
   22291   22292   22291   22293   22291   22294   22295   22296
   22295   22297   22295   22298   22298   22299   22298   22300
   22298   22301   22301   22302   22301   22303   22303   22308
   22303   22304   22304   22305   22304   22306   22304   22307
   22308   22309   22308   22310   22308   22311   22311   22312
   22311   22313   22314   22315   22314   22316   22314   22320
   22316   22317   22316   22318   22316   22319   22320   22321
   22320   22322   22320   22323   22323   22324   22323   22325
   22323   22326   22326   22327   22326   22328   22326   22329
   22329   22330   22329   22331   22329   22335   22331   22332
   22331   22333   22331   22334   22335   22336   22335   22337
   22335   22338   22339   22341   22339   22340   22339   22385
   22339   22343   22341   22342   22343   22344   22343   22345
   22343   22346   22346   22377   22346   22347   22347   22348
   22347   22349   22349   22350   22349   22351   22349   22352
   22352   22353   22352   22375   22352   22354   22354   22355
   22354   22364   22354   22356   22356   22357   22356   22358
   22356   22359   22359   22360   22359   22361   22359   22362
   22362   22363   22362   22364   22362   22388   22364   22369
   22364   22365   22365   22366   22365   22367   22365   22368
   22369   22370   22369   22371   22369   22372   22372   22373
   22372   22374   22372   22375   22375   22376   22375   22377
   22377   22382   22377   22378   22378   22379   22378   22380
   22378   22381   22382   22383   22382   22384   22382   22385
   22385   22386   22385   22387   22388   22389   22388   22390
   22388   22394   22390   22391   22390   22392   22390   22393
   22394   22395   22394   22396   22394   22397   22397   22398
   22397   22399   22397   22400   22400   22401   22400   22402
   22400   22403   22403   22404   22403   22405   22403   22409
   22405   22406   22405   22407   22405   22408   22409   22410
   22409   22411   22409   22412   22413   22415   22413   22414
   22413   22459   22413   22417   22415   22416   22417   22418
   22417   22419   22417   22420   22420   22451   22420   22421
   22421   22422   22421   22423   22423   22424   22423   22425
   22423   22426   22426   22427   22426   22449   22426   22428
   22428   22429   22428   22438   22428   22430   22430   22431
   22430   22432   22430   22433   22433   22434   22433   22435
   22433   22436   22436   22437   22436   22438   22436   22462
   22438   22443   22438   22439   22439   22440   22439   22441
   22439   22442   22443   22444   22443   22445   22443   22446
   22446   22447   22446   22448   22446   22449   22449   22450
   22449   22451   22451   22456   22451   22452   22452   22453
   22452   22454   22452   22455   22456   22457   22456   22458
   22456   22459   22459   22460   22459   22461   22462   22463
   22462   22464   22462   22468   22464   22465   22464   22466
   22464   22467   22468   22469   22468   22470   22468   22471
   22471   22472   22471   22473   22471   22474   22474   22475
   22474   22476   22474   22477   22477   22478   22477   22479
   22477   22483   22479   22480   22479   22481   22479   22482
   22483   22484   22483   22485   22483   22486   22487   22489
   22487   22488   22487   22533   22487   22491   22489   22490
   22491   22492   22491   22493   22491   22494   22494   22525
   22494   22495   22495   22496   22495   22497   22497   22498
   22497   22499   22497   22500   22500   22501   22500   22523
   22500   22502   22502   22503   22502   22512   22502   22504
   22504   22505   22504   22506   22504   22507   22507   22508
   22507   22509   22507   22510   22510   22511   22510   22512
   22510   22536   22512   22517   22512   22513   22513   22514
   22513   22515   22513   22516   22517   22518   22517   22519
   22517   22520   22520   22521   22520   22522   22520   22523
   22523   22524   22523   22525   22525   22530   22525   22526
   22526   22527   22526   22528   22526   22529   22530   22531
   22530   22532   22530   22533   22533   22534   22533   22535
   22536   22537   22536   22538   22536   22542   22538   22539
   22538   22540   22538   22541   22542   22543   22542   22544
   22542   22545   22545   22546   22545   22547   22545   22548
   22548   22549   22548   22550   22548   22551   22551   22552
   22551   22553   22551   22557   22553   22554   22553   22555
   22553   22556   22557   22558   22557   22559   22557   22560
   22561   22563   22561   22562   22561   22607   22561   22565
   22563   22564   22565   22566   22565   22567   22565   22568
   22568   22599   22568   22569   22569   22570   22569   22571
   22571   22572   22571   22573   22571   22574   22574   22575
   22574   22597   22574   22576   22576   22577   22576   22586
   22576   22578   22578   22579   22578   22580   22578   22581
   22581   22582   22581   22583   22581   22584   22584   22585
   22584   22586   22584   22610   22586   22591   22586   22587
   22587   22588   22587   22589   22587   22590   22591   22592
   22591   22593   22591   22594   22594   22595   22594   22596
   22594   22597   22597   22598   22597   22599   22599   22604
   22599   22600   22600   22601   22600   22602   22600   22603
   22604   22605   22604   22606   22604   22607   22607   22608
   22607   22609   22610   22611   22610   22612   22610   22616
   22612   22613   22612   22614   22612   22615   22616   22617
   22616   22618   22616   22619   22619   22620   22619   22621
   22619   22622   22622   22623   22622   22624   22622   22625
   22625   22626   22625   22627   22625   22631   22627   22628
   22627   22629   22627   22630   22631   22632   22631   22633
   22631   22634   22635   22637   22635   22636   22635   22681
   22635   22639   22637   22638   22639   22640   22639   22641
   22639   22642   22642   22673   22642   22643   22643   22644
   22643   22645   22645   22646   22645   22647   22645   22648
   22648   22649   22648   22671   22648   22650   22650   22651
   22650   22660   22650   22652   22652   22653   22652   22654
   22652   22655   22655   22656   22655   22657   22655   22658
   22658   22659   22658   22660   22658   22684   22660   22665
   22660   22661   22661   22662   22661   22663   22661   22664
   22665   22666   22665   22667   22665   22668   22668   22669
   22668   22670   22668   22671   22671   22672   22671   22673
   22673   22678   22673   22674   22674   22675   22674   22676
   22674   22677   22678   22679   22678   22680   22678   22681
   22681   22682   22681   22683   22684   22685   22684   22686
   22684   22690   22686   22687   22686   22688   22686   22689
   22690   22691   22690   22692   22690   22693   22693   22694
   22693   22695   22693   22696   22696   22697   22696   22698
   22696   22699   22699   22700   22699   22701   22699   22705
   22701   22702   22701   22703   22701   22704   22705   22706
   22705   22707   22705   22708   22709   22711   22709   22710
   22709   22755   22709   22713   22711   22712   22713   22714
   22713   22715   22713   22716   22716   22747   22716   22717
   22717   22718   22717   22719   22719   22720   22719   22721
   22719   22722   22722   22723   22722   22745   22722   22724
   22724   22725   22724   22734   22724   22726   22726   22727
   22726   22728   22726   22729   22729   22730   22729   22731
   22729   22732   22732   22733   22732   22734   22732   22758
   22734   22739   22734   22735   22735   22736   22735   22737
   22735   22738   22739   22740   22739   22741   22739   22742
   22742   22743   22742   22744   22742   22745   22745   22746
   22745   22747   22747   22752   22747   22748   22748   22749
   22748   22750   22748   22751   22752   22753   22752   22754
   22752   22755   22755   22756   22755   22757   22758   22759
   22758   22760   22758   22764   22760   22761   22760   22762
   22760   22763   22764   22765   22764   22766   22764   22767
   22767   22768   22767   22769   22767   22770   22770   22771
   22770   22772   22770   22773   22773   22774   22773   22775
   22773   22779   22775   22776   22775   22777   22775   22778
   22779   22780   22779   22781   22779   22782   22783   22785
   22783   22784   22783   22829   22783   22787   22785   22786
   22787   22788   22787   22789   22787   22790   22790   22821
   22790   22791   22791   22792   22791   22793   22793   22794
   22793   22795   22793   22796   22796   22797   22796   22819
   22796   22798   22798   22799   22798   22808   22798   22800
   22800   22801   22800   22802   22800   22803   22803   22804
   22803   22805   22803   22806   22806   22807   22806   22808
   22806   22832   22808   22813   22808   22809   22809   22810
   22809   22811   22809   22812   22813   22814   22813   22815
   22813   22816   22816   22817   22816   22818   22816   22819
   22819   22820   22819   22821   22821   22826   22821   22822
   22822   22823   22822   22824   22822   22825   22826   22827
   22826   22828   22826   22829   22829   22830   22829   22831
   22832   22833   22832   22834   22832   22838   22834   22835
   22834   22836   22834   22837   22838   22839   22838   22840
   22838   22841   22841   22842   22841   22843   22841   22844
   22844   22845   22844   22846   22844   22847   22847   22848
   22847   22849   22847   22853   22849   22850   22849   22851
   22849   22852   22853   22854   22853   22855   22853   22856
   22857   22859   22857   22858   22857   22903   22857   22861
   22859   22860   22861   22862   22861   22863   22861   22864
   22864   22895   22864   22865   22865   22866   22865   22867
   22867   22868   22867   22869   22867   22870   22870   22871
   22870   22893   22870   22872   22872   22873   22872   22882
   22872   22874   22874   22875   22874   22876   22874   22877
   22877   22878   22877   22879   22877   22880   22880   22881
   22880   22882   22880   22906   22882   22887   22882   22883
   22883   22884   22883   22885   22883   22886   22887   22888
   22887   22889   22887   22890   22890   22891   22890   22892
   22890   22893   22893   22894   22893   22895   22895   22900
   22895   22896   22896   22897   22896   22898   22896   22899
   22900   22901   22900   22902   22900   22903   22903   22904
   22903   22905   22906   22907   22906   22908   22906   22912
   22908   22909   22908   22910   22908   22911   22912   22913
   22912   22914   22912   22915   22915   22916   22915   22917
   22915   22918   22918   22919   22918   22920   22918   22921
   22921   22922   22921   22923   22921   22927   22923   22924
   22923   22925   22923   22926   22927   22928   22927   22929
   22927   22930   22931   22932   22931   22933   22931   22934
   22931   22935   22935   22936   22935   22940   22935   22937
   22937   22938   22937   22939   22940   22941   22940   22942
   22940   22946   22943   22947   22943   22944   22943   22945
   22943   22946   22947   22948   22948   22949   22948   22950
   22948   22951   22951   22952   22951   22959   22951   22953
   22953   22954   22954   22956   22954   22955   22956   22957
   22956   22958   22956   22968   22959   22960   22959   22961
   22959   22962   22962   22963   22963   22965   22963   22964
   22965   22966   22965   22967   22965   23015   22968   22969
   22968   22970   22968   22971   22971   22972   22971   22973
   22971   22974   22974   22975   22974   22976   22974   22977
   22977   22978   22977   22979   22977   22980   22980   22981
   22980   22982   22980   22983   22983   22984   22983   22985
   22983   22986   22986   22987   22986   22988   22988   22989
   22988   22990   22990   22991   22990   22992   22990   22993
   22993   22994   22993   22995   22993   22996   22996   22997
   22996   22998   22996   22999   22999   23000   22999   23001
   22999   23002   23002   23003   23002   23004   23002   23005
   23005   23006   23005   23007   23005   23008   23008   23009
   23008   23010   23008   23011   23011   23012   23011   23013
   23011   23014   23015   23016   23015   23017   23015   23018
   23018   23019   23018   23020   23018   23021   23021   23022
   23021   23023   23021   23024   23024   23025   23024   23026
   23024   23027   23027   23028   23027   23029   23027   23030
   23030   23031   23030   23032   23030   23033   23033   23034
   23033   23035   23033   23036   23036   23037   23036   23038
   23036   23039   23039   23040   23039   23041   23039   23042
   23042   23043   23042   23044   23042   23045   23045   23046
   23045   23047   23045   23048   23048   23049   23048   23050
   23048   23051   23051   23052   23051   23053   23051   23054
   23054   23055   23054   23056   23054   23057   23058   23067
   23058   23063   23058   23059   23058   23071   23059   23060
   23059   23061   23059   23062   23063   23064   23063   23065
   23063   23066   23067   23068   23067   23069   23067   23070
   23071   23072   23071   23073   23071   23074   23074   23075
   23074   23076   23074   23081   23077   23078   23077   23079
   23077   23080   23077   23081   23080   23082   23082   23083
   23082   23084   23082   23087   23085   23086   23085   23137
   23085   23087   23087   23088   23087   23089   23089   23090
   23089   23091   23089   23093   23091   23092   23093   23094
   23093   23095   23095   23096   23095   23097   23097   23098
   23097   23099   23097   23100   23100   23101   23100   23102
   23100   23103   23103   23104   23103   23105   23103   23106
   23106   23107   23106   23108   23106   23109   23109   23110
   23109   23111   23109   23112   23112   23113   23112   23114
   23112   23115   23115   23116   23115   23117   23115   23118
   23118   23119   23118   23120   23118   23121   23121   23122
   23121   23123   23121   23124   23124   23125   23124   23126
   23124   23127   23127   23128   23127   23129   23127   23130
   23130   23131   23130   23132   23130   23133   23133   23134
   23133   23135   23133   23136   23137   23139   23137   23138
   23139   23140   23139   23141   23139   23142   23142   23143
   23142   23144   23142   23145   23145   23146   23145   23147
   23145   23148   23148   23149   23148   23150   23148   23151
   23151   23152   23151   23153   23151   23154   23154   23155
   23154   23156   23154   23157   23157   23158   23157   23159
   23157   23160   23160   23161   23160   23162   23160   23163
   23163   23164   23163   23165   23163   23166   23166   23167
   23166   23168   23166   23169   23169   23170   23169   23171
   23169   23172   23172   23173   23172   23174   23172   23175
   23175   23176   23175   23177   23175   23178   23178   23179
   23178   23180   23178   23181   23181   23182   23181   23183
   23181   23184   23185   23186   23185   23187   23185   23188
   23185   23189   23189   23190   23189   23194   23189   23191
   23191   23192   23191   23193   23194   23195   23194   23196
   23194   23200   23197   23201   23197   23198   23197   23199
   23197   23200   23201   23202   23202   23203   23202   23204
   23202   23205   23205   23206   23205   23213   23205   23207
   23207   23208   23208   23210   23208   23209   23210   23211
   23210   23212   23210   23222   23213   23214   23213   23215
   23213   23216   23216   23217   23217   23219   23217   23218
   23219   23220   23219   23221   23219   23269   23222   23223
   23222   23224   23222   23225   23225   23226   23225   23227
   23225   23228   23228   23229   23228   23230   23228   23231
   23231   23232   23231   23233   23231   23234   23234   23235
   23234   23236   23234   23237   23237   23238   23237   23239
   23237   23240   23240   23241   23240   23242   23242   23243
   23242   23244   23244   23245   23244   23246   23244   23247
   23247   23248   23247   23249   23247   23250   23250   23251
   23250   23252   23250   23253   23253   23254   23253   23255
   23253   23256   23256   23257   23256   23258   23256   23259
   23259   23260   23259   23261   23259   23262   23262   23263
   23262   23264   23262   23265   23265   23266   23265   23267
   23265   23268   23269   23270   23269   23271   23269   23272
   23272   23273   23272   23274   23272   23275   23275   23276
   23275   23277   23275   23278   23278   23279   23278   23280
   23278   23281   23281   23282   23281   23283   23281   23284
   23284   23285   23284   23286   23284   23287   23287   23288
   23287   23289   23287   23290   23290   23291   23290   23292
   23290   23293   23293   23294   23293   23295   23293   23296
   23296   23297   23296   23298   23296   23299   23299   23300
   23299   23301   23299   23302   23302   23303   23302   23304
   23302   23305   23305   23306   23305   23307   23305   23308
   23308   23309   23308   23310   23308   23311   23312   23313
   23312   23314   23312   23315   23312   23316   23316   23317
   23316   23321   23316   23318   23318   23319   23318   23320
   23321   23322   23321   23323   23321   23327   23324   23328
   23324   23325   23324   23326   23324   23327   23328   23329
   23329   23330   23329   23331   23329   23332   23332   23333
   23332   23340   23332   23334   23334   23335   23335   23337
   23335   23336   23337   23338   23337   23339   23337   23349
   23340   23341   23340   23342   23340   23343   23343   23344
   23344   23346   23344   23345   23346   23347   23346   23348
   23346   23396   23349   23350   23349   23351   23349   23352
   23352   23353   23352   23354   23352   23355   23355   23356
   23355   23357   23355   23358   23358   23359   23358   23360
   23358   23361   23361   23362   23361   23363   23361   23364
   23364   23365   23364   23366   23364   23367   23367   23368
   23367   23369   23369   23370   23369   23371   23371   23372
   23371   23373   23371   23374   23374   23375   23374   23376
   23374   23377   23377   23378   23377   23379   23377   23380
   23380   23381   23380   23382   23380   23383   23383   23384
   23383   23385   23383   23386   23386   23387   23386   23388
   23386   23389   23389   23390   23389   23391   23389   23392
   23392   23393   23392   23394   23392   23395   23396   23397
   23396   23398   23396   23399   23399   23400   23399   23401
   23399   23402   23402   23403   23402   23404   23402   23405
   23405   23406   23405   23407   23405   23408   23408   23409
   23408   23410   23408   23411   23411   23412   23411   23413
   23411   23414   23414   23415   23414   23416   23414   23417
   23417   23418   23417   23419   23417   23420   23420   23421
   23420   23422   23420   23423   23423   23424   23423   23425
   23423   23426   23426   23427   23426   23428   23426   23429
   23429   23430   23429   23431   23429   23432   23432   23433
   23432   23434   23432   23435   23435   23436   23435   23437
   23435   23438   23439   23443   23439   23447   23439   23451
   23439   23440   23440   23441   23440   23442   23440   23455
   23443   23444   23443   23445   23443   23446   23447   23448
   23447   23449   23447   23450   23451   23452   23451   23453
   23451   23454   23455   23456   23455   23457   23455   23461
   23458   23462   23458   23459   23458   23460   23458   23461
   23462   23463   23463   23464   23463   23465   23463   23466
   23466   23467   23466   23474   23466   23468   23468   23469
   23469   23471   23469   23470   23471   23472   23471   23473
   23471   23483   23474   23475   23474   23476   23474   23477
   23477   23478   23478   23480   23478   23479   23480   23481
   23480   23482   23480   23530   23483   23484   23483   23485
   23483   23486   23486   23487   23486   23488   23486   23489
   23489   23490   23489   23491   23489   23492   23492   23493
   23492   23494   23492   23495   23495   23496   23495   23497
   23495   23498   23498   23499   23498   23500   23498   23501
   23501   23502   23501   23503   23503   23504   23503   23505
   23505   23506   23505   23507   23505   23508   23508   23509
   23508   23510   23508   23511   23511   23512   23511   23513
   23511   23514   23514   23515   23514   23516   23514   23517
   23517   23518   23517   23519   23517   23520   23520   23521
   23520   23522   23520   23523   23523   23524   23523   23525
   23523   23526   23526   23527   23526   23528   23526   23529
   23530   23531   23530   23532   23530   23533   23533   23534
   23533   23535   23533   23536   23536   23537   23536   23538
   23536   23539   23539   23540   23539   23541   23539   23542
   23542   23543   23542   23544   23542   23545   23545   23546
   23545   23547   23545   23548   23548   23549   23548   23550
   23548   23551   23551   23552   23551   23553   23551   23554
   23554   23555   23554   23556   23554   23557   23557   23558
   23557   23559   23557   23560   23560   23561   23560   23562
   23560   23563   23563   23564   23563   23565   23563   23566
   23566   23567   23566   23568   23566   23569   23569   23570
   23569   23571   23569   23572   23573   23582   23573   23578
   23573   23574   23573   23586   23574   23575   23574   23576
   23574   23577   23578   23579   23578   23580   23578   23581
   23582   23583   23582   23584   23582   23585   23586   23587
   23586   23588   23586   23589   23589   23590   23589   23591
   23589   23596   23592   23593   23592   23594   23592   23595
   23592   23596   23595   23597   23597   23598   23597   23599
   23597   23602   23600   23601   23600   23652   23600   23602
   23602   23603   23602   23604   23604   23605   23604   23606
   23604   23608   23606   23607   23608   23609   23608   23610
   23610   23611   23610   23612   23612   23613   23612   23614
   23612   23615   23615   23616   23615   23617   23615   23618
   23618   23619   23618   23620   23618   23621   23621   23622
   23621   23623   23621   23624   23624   23625   23624   23626
   23624   23627   23627   23628   23627   23629   23627   23630
   23630   23631   23630   23632   23630   23633   23633   23634
   23633   23635   23633   23636   23636   23637   23636   23638
   23636   23639   23639   23640   23639   23641   23639   23642
   23642   23643   23642   23644   23642   23645   23645   23646
   23645   23647   23645   23648   23648   23649   23648   23650
   23648   23651   23652   23654   23652   23653   23654   23655
   23654   23656   23654   23657   23657   23658   23657   23659
   23657   23660   23660   23661   23660   23662   23660   23663
   23663   23664   23663   23665   23663   23666   23666   23667
   23666   23668   23666   23669   23669   23670   23669   23671
   23669   23672   23672   23673   23672   23674   23672   23675
   23675   23676   23675   23677   23675   23678   23678   23679
   23678   23680   23678   23681   23681   23682   23681   23683
   23681   23684   23684   23685   23684   23686   23684   23687
   23687   23688   23687   23689   23687   23690   23690   23691
   23690   23692   23690   23693   23693   23694   23693   23695
   23693   23696   23696   23697   23696   23698   23696   23699
   23700   23704   23700   23708   23700   23712   23700   23701
   23701   23702   23701   23703   23701   23716   23704   23705
   23704   23706   23704   23707   23708   23709   23708   23710
   23708   23711   23712   23713   23712   23714   23712   23715
   23716   23717   23716   23718   23716   23722   23719   23723
   23719   23720   23719   23721   23719   23722   23723   23724
   23724   23725   23724   23726   23724   23727   23727   23728
   23727   23735   23727   23729   23729   23730   23730   23732
   23730   23731   23732   23733   23732   23734   23732   23744
   23735   23736   23735   23737   23735   23738   23738   23739
   23739   23741   23739   23740   23741   23742   23741   23743
   23741   23791   23744   23745   23744   23746   23744   23747
   23747   23748   23747   23749   23747   23750   23750   23751
   23750   23752   23750   23753   23753   23754   23753   23755
   23753   23756   23756   23757   23756   23758   23756   23759
   23759   23760   23759   23761   23759   23762   23762   23763
   23762   23764   23764   23765   23764   23766   23766   23767
   23766   23768   23766   23769   23769   23770   23769   23771
   23769   23772   23772   23773   23772   23774   23772   23775
   23775   23776   23775   23777   23775   23778   23778   23779
   23778   23780   23778   23781   23781   23782   23781   23783
   23781   23784   23784   23785   23784   23786   23784   23787
   23787   23788   23787   23789   23787   23790   23791   23792
   23791   23793   23791   23794   23794   23795   23794   23796
   23794   23797   23797   23798   23797   23799   23797   23800
   23800   23801   23800   23802   23800   23803   23803   23804
   23803   23805   23803   23806   23806   23807   23806   23808
   23806   23809   23809   23810   23809   23811   23809   23812
   23812   23813   23812   23814   23812   23815   23815   23816
   23815   23817   23815   23818   23818   23819   23818   23820
   23818   23821   23821   23822   23821   23823   23821   23824
   23824   23825   23824   23826   23824   23827   23827   23828
   23827   23829   23827   23830   23830   23831   23830   23832
   23830   23833   23834   23843   23834   23839   23834   23835
   23834   23847   23835   23836   23835   23837   23835   23838
   23839   23840   23839   23841   23839   23842   23843   23844
   23843   23845   23843   23846   23847   23848   23847   23849
   23847   23850   23850   23851   23850   23852   23850   23857
   23853   23854   23853   23855   23853   23856   23853   23857
   23856   23858   23858   23859   23858   23860   23858   23863
   23861   23862   23861   23913   23861   23863   23863   23864
   23863   23865   23865   23866   23865   23867   23865   23869
   23867   23868   23869   23870   23869   23871   23871   23872
   23871   23873   23873   23874   23873   23875   23873   23876
   23876   23877   23876   23878   23876   23879   23879   23880
   23879   23881   23879   23882   23882   23883   23882   23884
   23882   23885   23885   23886   23885   23887   23885   23888
   23888   23889   23888   23890   23888   23891   23891   23892
   23891   23893   23891   23894   23894   23895   23894   23896
   23894   23897   23897   23898   23897   23899   23897   23900
   23900   23901   23900   23902   23900   23903   23903   23904
   23903   23905   23903   23906   23906   23907   23906   23908
   23906   23909   23909   23910   23909   23911   23909   23912
   23913   23915   23913   23914   23915   23916   23915   23917
   23915   23918   23918   23919   23918   23920   23918   23921
   23921   23922   23921   23923   23921   23924   23924   23925
   23924   23926   23924   23927   23927   23928   23927   23929
   23927   23930   23930   23931   23930   23932   23930   23933
   23933   23934   23933   23935   23933   23936   23936   23937
   23936   23938   23936   23939   23939   23940   23939   23941
   23939   23942   23942   23943   23942   23944   23942   23945
   23945   23946   23945   23947   23945   23948   23948   23949
   23948   23950   23948   23951   23951   23952   23951   23953
   23951   23954   23954   23955   23954   23956   23954   23957
   23957   23958   23957   23959   23957   23960   23961   23962
   23961   23963   23961   23964   23961   23965   23965   23966
   23965   23967   23965   23968   23968   23969   23968   23970
   23968   23975   23971   23974   23971   23972   23971   23973
   23971   23975   23974   23976   23976   23977   23976   23978
   23976   23979   23979   23980   23979   23987   23979   23981
   23981   23982   23982   23984   23982   23983   23984   23985
   23984   23986   23984   23996   23987   23988   23987   23989
   23987   23990   23990   23991   23991   23993   23991   23992
   23993   23994   23993   23995   23993   24043   23996   23997
   23996   23998   23996   23999   23999   24000   23999   24001
   23999   24002   24002   24003   24002   24004   24002   24005
   24005   24006   24005   24007   24005   24008   24008   24009
   24008   24010   24008   24011   24011   24012   24011   24013
   24011   24014   24014   24015   24014   24016   24016   24017
   24016   24018   24018   24019   24018   24020   24018   24021
   24021   24022   24021   24023   24021   24024   24024   24025
   24024   24026   24024   24027   24027   24028   24027   24029
   24027   24030   24030   24031   24030   24032   24030   24033
   24033   24034   24033   24035   24033   24036   24036   24037
   24036   24038   24036   24039   24039   24040   24039   24041
   24039   24042   24043   24044   24043   24045   24043   24046
   24046   24047   24046   24048   24046   24049   24049   24050
   24049   24051   24049   24052   24052   24053   24052   24054
   24052   24055   24055   24056   24055   24057   24055   24058
   24058   24059   24058   24060   24058   24061   24061   24062
   24061   24063   24061   24064   24064   24065   24064   24066
   24064   24067   24067   24068   24067   24069   24067   24070
   24070   24071   24070   24072   24070   24073   24073   24074
   24073   24075   24073   24076   24076   24077   24076   24078
   24076   24079   24079   24080   24079   24081   24079   24082
   24082   24083   24082   24084   24082   24085   24086   24087
   24086   24088   24086   24089   24086   24090   24090   24091
   24090   24095   24090   24092   24092   24093   24092   24094
   24095   24096   24095   24097   24095   24101   24098   24102
   24098   24099   24098   24100   24098   24101   24102   24103
   24103   24104   24103   24105   24103   24106   24106   24107
   24106   24114   24106   24108   24108   24109   24109   24111
   24109   24110   24111   24112   24111   24113   24111   24123
   24114   24115   24114   24116   24114   24117   24117   24118
   24118   24120   24118   24119   24120   24121   24120   24122
   24120   24170   24123   24124   24123   24125   24123   24126
   24126   24127   24126   24128   24126   24129   24129   24130
   24129   24131   24129   24132   24132   24133   24132   24134
   24132   24135   24135   24136   24135   24137   24135   24138
   24138   24139   24138   24140   24138   24141   24141   24142
   24141   24143   24143   24144   24143   24145   24145   24146
   24145   24147   24145   24148   24148   24149   24148   24150
   24148   24151   24151   24152   24151   24153   24151   24154
   24154   24155   24154   24156   24154   24157   24157   24158
   24157   24159   24157   24160   24160   24161   24160   24162
   24160   24163   24163   24164   24163   24165   24163   24166
   24166   24167   24166   24168   24166   24169   24170   24171
   24170   24172   24170   24173   24173   24174   24173   24175
   24173   24176   24176   24177   24176   24178   24176   24179
   24179   24180   24179   24181   24179   24182   24182   24183
   24182   24184   24182   24185   24185   24186   24185   24187
   24185   24188   24188   24189   24188   24190   24188   24191
   24191   24192   24191   24193   24191   24194   24194   24195
   24194   24196   24194   24197   24197   24198   24197   24199
   24197   24200   24200   24201   24200   24202   24200   24203
   24203   24204   24203   24205   24203   24206   24206   24207
   24206   24208   24206   24209   24209   24210   24209   24211
   24209   24212   24213   24217   24213   24221   24213   24225
   24213   24214   24214   24215   24214   24216   24214   24229
   24217   24218   24217   24219   24217   24220   24221   24222
   24221   24223   24221   24224   24225   24226   24225   24227
   24225   24228   24229   24230   24229   24231   24229   24235
   24232   24236   24232   24233   24232   24234   24232   24235
   24236   24237   24237   24238   24237   24239   24237   24240
   24240   24241   24240   24248   24240   24242   24242   24243
   24243   24245   24243   24244   24245   24246   24245   24247
   24245   24257   24248   24249   24248   24250   24248   24251
   24251   24252   24252   24254   24252   24253   24254   24255
   24254   24256   24254   24304   24257   24258   24257   24259
   24257   24260   24260   24261   24260   24262   24260   24263
   24263   24264   24263   24265   24263   24266   24266   24267
   24266   24268   24266   24269   24269   24270   24269   24271
   24269   24272   24272   24273   24272   24274   24272   24275
   24275   24276   24275   24277   24277   24278   24277   24279
   24279   24280   24279   24281   24279   24282   24282   24283
   24282   24284   24282   24285   24285   24286   24285   24287
   24285   24288   24288   24289   24288   24290   24288   24291
   24291   24292   24291   24293   24291   24294   24294   24295
   24294   24296   24294   24297   24297   24298   24297   24299
   24297   24300   24300   24301   24300   24302   24300   24303
   24304   24305   24304   24306   24304   24307   24307   24308
   24307   24309   24307   24310   24310   24311   24310   24312
   24310   24313   24313   24314   24313   24315   24313   24316
   24316   24317   24316   24318   24316   24319   24319   24320
   24319   24321   24319   24322   24322   24323   24322   24324
   24322   24325   24325   24326   24325   24327   24325   24328
   24328   24329   24328   24330   24328   24331   24331   24332
   24331   24333   24331   24334   24334   24335   24334   24336
   24334   24337   24337   24338   24337   24339   24337   24340
   24340   24341   24340   24342   24340   24343   24343   24344
   24343   24345   24343   24346   24347   24348   24347   24349
   24347   24350   24347   24351   24351   24352   24351   24353
   24351   24354   24354   24355   24354   24356   24354   24361
   24357   24360   24357   24358   24357   24359   24357   24361
   24360   24362   24362   24363   24362   24364   24362   24365
   24365   24366   24365   24373   24365   24367   24367   24368
   24368   24370   24368   24369   24370   24371   24370   24372
   24370   24382   24373   24374   24373   24375   24373   24376
   24376   24377   24377   24379   24377   24378   24379   24380
   24379   24381   24379   24429   24382   24383   24382   24384
   24382   24385   24385   24386   24385   24387   24385   24388
   24388   24389   24388   24390   24388   24391   24391   24392
   24391   24393   24391   24394   24394   24395   24394   24396
   24394   24397   24397   24398   24397   24399   24397   24400
   24400   24401   24400   24402   24402   24403   24402   24404
   24404   24405   24404   24406   24404   24407   24407   24408
   24407   24409   24407   24410   24410   24411   24410   24412
   24410   24413   24413   24414   24413   24415   24413   24416
   24416   24417   24416   24418   24416   24419   24419   24420
   24419   24421   24419   24422   24422   24423   24422   24424
   24422   24425   24425   24426   24425   24427   24425   24428
   24429   24430   24429   24431   24429   24432   24432   24433
   24432   24434   24432   24435   24435   24436   24435   24437
   24435   24438   24438   24439   24438   24440   24438   24441
   24441   24442   24441   24443   24441   24444   24444   24445
   24444   24446   24444   24447   24447   24448   24447   24449
   24447   24450   24450   24451   24450   24452   24450   24453
   24453   24454   24453   24455   24453   24456   24456   24457
   24456   24458   24456   24459   24459   24460   24459   24461
   24459   24462   24462   24463   24462   24464   24462   24465
   24465   24466   24465   24467   24465   24468   24468   24469
   24468   24470   24468   24471   24472   24476   24472   24480
   24472   24484   24472   24473   24473   24474   24473   24475
   24473   24488   24476   24477   24476   24478   24476   24479
   24480   24481   24480   24482   24480   24483   24484   24485
   24484   24486   24484   24487   24488   24489   24488   24490
   24488   24494   24491   24495   24491   24492   24491   24493
   24491   24494   24495   24496   24496   24497   24496   24498
   24496   24499   24499   24500   24499   24507   24499   24501
   24501   24502   24502   24504   24502   24503   24504   24505
   24504   24506   24504   24516   24507   24508   24507   24509
   24507   24510   24510   24511   24511   24513   24511   24512
   24513   24514   24513   24515   24513   24563   24516   24517
   24516   24518   24516   24519   24519   24520   24519   24521
   24519   24522   24522   24523   24522   24524   24522   24525
   24525   24526   24525   24527   24525   24528   24528   24529
   24528   24530   24528   24531   24531   24532   24531   24533
   24531   24534   24534   24535   24534   24536   24536   24537
   24536   24538   24538   24539   24538   24540   24538   24541
   24541   24542   24541   24543   24541   24544   24544   24545
   24544   24546   24544   24547   24547   24548   24547   24549
   24547   24550   24550   24551   24550   24552   24550   24553
   24553   24554   24553   24555   24553   24556   24556   24557
   24556   24558   24556   24559   24559   24560   24559   24561
   24559   24562   24563   24564   24563   24565   24563   24566
   24566   24567   24566   24568   24566   24569   24569   24570
   24569   24571   24569   24572   24572   24573   24572   24574
   24572   24575   24575   24576   24575   24577   24575   24578
   24578   24579   24578   24580   24578   24581   24581   24582
   24581   24583   24581   24584   24584   24585   24584   24586
   24584   24587   24587   24588   24587   24589   24587   24590
   24590   24591   24590   24592   24590   24593   24593   24594
   24593   24595   24593   24596   24596   24597   24596   24598
   24596   24599   24599   24600   24599   24601   24599   24602
   24602   24603   24602   24604   24602   24605   24606   24615
   24606   24611   24606   24607   24606   24619   24607   24608
   24607   24609   24607   24610   24611   24612   24611   24613
   24611   24614   24615   24616   24615   24617   24615   24618
   24619   24620   24619   24621   24619   24622   24622   24623
   24622   24624   24622   24629   24625   24626   24625   24627
   24625   24628   24625   24629   24628   24630   24630   24631
   24630   24632   24630   24635   24633   24634   24633   24685
   24633   24635   24635   24636   24635   24637   24637   24638
   24637   24639   24637   24641   24639   24640   24641   24642
   24641   24643   24643   24644   24643   24645   24645   24646
   24645   24647   24645   24648   24648   24649   24648   24650
   24648   24651   24651   24652   24651   24653   24651   24654
   24654   24655   24654   24656   24654   24657   24657   24658
   24657   24659   24657   24660   24660   24661   24660   24662
   24660   24663   24663   24664   24663   24665   24663   24666
   24666   24667   24666   24668   24666   24669   24669   24670
   24669   24671   24669   24672   24672   24673   24672   24674
   24672   24675   24675   24676   24675   24677   24675   24678
   24678   24679   24678   24680   24678   24681   24681   24682
   24681   24683   24681   24684   24685   24687   24685   24686
   24687   24688   24687   24689   24687   24690   24690   24691
   24690   24692   24690   24693   24693   24694   24693   24695
   24693   24696   24696   24697   24696   24698   24696   24699
   24699   24700   24699   24701   24699   24702   24702   24703
   24702   24704   24702   24705   24705   24706   24705   24707
   24705   24708   24708   24709   24708   24710   24708   24711
   24711   24712   24711   24713   24711   24714   24714   24715
   24714   24716   24714   24717   24717   24718   24717   24719
   24717   24720   24720   24721   24720   24722   24720   24723
   24723   24724   24723   24725   24723   24726   24726   24727
   24726   24728   24726   24729   24729   24730   24729   24731
   24729   24732   24733   24737   24733   24741   24733   24745
   24733   24734   24734   24735   24734   24736   24734   24749
   24737   24738   24737   24739   24737   24740   24741   24742
   24741   24743   24741   24744   24745   24746   24745   24747
   24745   24748   24749   24750   24749   24751   24749   24755
   24752   24756   24752   24753   24752   24754   24752   24755
   24756   24757   24757   24758   24757   24759   24757   24760
   24760   24761   24760   24768   24760   24762   24762   24763
   24763   24765   24763   24764   24765   24766   24765   24767
   24765   24777   24768   24769   24768   24770   24768   24771
   24771   24772   24772   24774   24772   24773   24774   24775
   24774   24776   24774   24824   24777   24778   24777   24779
   24777   24780   24780   24781   24780   24782   24780   24783
   24783   24784   24783   24785   24783   24786   24786   24787
   24786   24788   24786   24789   24789   24790   24789   24791
   24789   24792   24792   24793   24792   24794   24792   24795
   24795   24796   24795   24797   24797   24798   24797   24799
   24799   24800   24799   24801   24799   24802   24802   24803
   24802   24804   24802   24805   24805   24806   24805   24807
   24805   24808   24808   24809   24808   24810   24808   24811
   24811   24812   24811   24813   24811   24814   24814   24815
   24814   24816   24814   24817   24817   24818   24817   24819
   24817   24820   24820   24821   24820   24822   24820   24823
   24824   24825   24824   24826   24824   24827   24827   24828
   24827   24829   24827   24830   24830   24831   24830   24832
   24830   24833   24833   24834   24833   24835   24833   24836
   24836   24837   24836   24838   24836   24839   24839   24840
   24839   24841   24839   24842   24842   24843   24842   24844
   24842   24845   24845   24846   24845   24847   24845   24848
   24848   24849   24848   24850   24848   24851   24851   24852
   24851   24853   24851   24854   24854   24855   24854   24856
   24854   24857   24857   24858   24857   24859   24857   24860
   24860   24861   24860   24862   24860   24863   24863   24864
   24863   24865   24863   24866   24867   24868   24867   24869
   24867   24870   24867   24871   24871   24872   24871   24873
   24871   24874   24874   24875   24874   24876   24874   24881
   24877   24880   24877   24878   24877   24879   24877   24881
   24880   24882   24882   24883   24882   24884   24882   24885
   24885   24886   24885   24893   24885   24887   24887   24888
   24888   24890   24888   24889   24890   24891   24890   24892
   24890   24902   24893   24894   24893   24895   24893   24896
   24896   24897   24897   24899   24897   24898   24899   24900
   24899   24901   24899   24949   24902   24903   24902   24904
   24902   24905   24905   24906   24905   24907   24905   24908
   24908   24909   24908   24910   24908   24911   24911   24912
   24911   24913   24911   24914   24914   24915   24914   24916
   24914   24917   24917   24918   24917   24919   24917   24920
   24920   24921   24920   24922   24922   24923   24922   24924
   24924   24925   24924   24926   24924   24927   24927   24928
   24927   24929   24927   24930   24930   24931   24930   24932
   24930   24933   24933   24934   24933   24935   24933   24936
   24936   24937   24936   24938   24936   24939   24939   24940
   24939   24941   24939   24942   24942   24943   24942   24944
   24942   24945   24945   24946   24945   24947   24945   24948
   24949   24950   24949   24951   24949   24952   24952   24953
   24952   24954   24952   24955   24955   24956   24955   24957
   24955   24958   24958   24959   24958   24960   24958   24961
   24961   24962   24961   24963   24961   24964   24964   24965
   24964   24966   24964   24967   24967   24968   24967   24969
   24967   24970   24970   24971   24970   24972   24970   24973
   24973   24974   24973   24975   24973   24976   24976   24977
   24976   24978   24976   24979   24979   24980   24979   24981
   24979   24982   24982   24983   24982   24984   24982   24985
   24985   24986   24985   24987   24985   24988   24988   24989
   24988   24990   24988   24991   24992   24993   24992   24994
   24992   24995   24992   24996   24996   24997   24996   24998
   24996   24999   24999   25000   24999   25001   24999   25006
   25002   25005   25002   25003   25002   25004   25002   25006
   25005   25007   25007   25008   25007   25009   25007   25010
   25010   25011   25010   25018   25010   25012   25012   25013
   25013   25015   25013   25014   25015   25016   25015   25017
   25015   25027   25018   25019   25018   25020   25018   25021
   25021   25022   25022   25024   25022   25023   25024   25025
   25024   25026   25024   25074   25027   25028   25027   25029
   25027   25030   25030   25031   25030   25032   25030   25033
   25033   25034   25033   25035   25033   25036   25036   25037
   25036   25038   25036   25039   25039   25040   25039   25041
   25039   25042   25042   25043   25042   25044   25042   25045
   25045   25046   25045   25047   25047   25048   25047   25049
   25049   25050   25049   25051   25049   25052   25052   25053
   25052   25054   25052   25055   25055   25056   25055   25057
   25055   25058   25058   25059   25058   25060   25058   25061
   25061   25062   25061   25063   25061   25064   25064   25065
   25064   25066   25064   25067   25067   25068   25067   25069
   25067   25070   25070   25071   25070   25072   25070   25073
   25074   25075   25074   25076   25074   25077   25077   25078
   25077   25079   25077   25080   25080   25081   25080   25082
   25080   25083   25083   25084   25083   25085   25083   25086
   25086   25087   25086   25088   25086   25089   25089   25090
   25089   25091   25089   25092   25092   25093   25092   25094
   25092   25095   25095   25096   25095   25097   25095   25098
   25098   25099   25098   25100   25098   25101   25101   25102
   25101   25103   25101   25104   25104   25105   25104   25106
   25104   25107   25107   25108   25107   25109   25107   25110
   25110   25111   25110   25112   25110   25113   25113   25114
   25113   25115   25113   25116   25117   25118   25117   25119
   25117   25120   25117   25121   25121   25122   25121   25123
   25121   25124   25124   25125   25124   25126   25124   25131
   25127   25130   25127   25128   25127   25129   25127   25131
   25130   25132   25132   25133   25132   25134   25132   25135
   25135   25136   25135   25143   25135   25137   25137   25138
   25138   25140   25138   25139   25140   25141   25140   25142
   25140   25152   25143   25144   25143   25145   25143   25146
   25146   25147   25147   25149   25147   25148   25149   25150
   25149   25151   25149   25199   25152   25153   25152   25154
   25152   25155   25155   25156   25155   25157   25155   25158
   25158   25159   25158   25160   25158   25161   25161   25162
   25161   25163   25161   25164   25164   25165   25164   25166
   25164   25167   25167   25168   25167   25169   25167   25170
   25170   25171   25170   25172   25172   25173   25172   25174
   25174   25175   25174   25176   25174   25177   25177   25178
   25177   25179   25177   25180   25180   25181   25180   25182
   25180   25183   25183   25184   25183   25185   25183   25186
   25186   25187   25186   25188   25186   25189   25189   25190
   25189   25191   25189   25192   25192   25193   25192   25194
   25192   25195   25195   25196   25195   25197   25195   25198
   25199   25200   25199   25201   25199   25202   25202   25203
   25202   25204   25202   25205   25205   25206   25205   25207
   25205   25208   25208   25209   25208   25210   25208   25211
   25211   25212   25211   25213   25211   25214   25214   25215
   25214   25216   25214   25217   25217   25218   25217   25219
   25217   25220   25220   25221   25220   25222   25220   25223
   25223   25224   25223   25225   25223   25226   25226   25227
   25226   25228   25226   25229   25229   25230   25229   25231
   25229   25232   25232   25233   25232   25234   25232   25235
   25235   25236   25235   25237   25235   25238   25238   25239
   25238   25240   25238   25241   25242   25243   25242   25244
   25242   25245   25242   25246   25246   25247   25246   25248
   25246   25249   25249   25250   25249   25251   25249   25256
   25252   25255   25252   25253   25252   25254   25252   25256
   25255   25257   25257   25258   25257   25259   25257   25260
   25260   25261   25260   25268   25260   25262   25262   25263
   25263   25265   25263   25264   25265   25266   25265   25267
   25265   25277   25268   25269   25268   25270   25268   25271
   25271   25272   25272   25274   25272   25273   25274   25275
   25274   25276   25274   25324   25277   25278   25277   25279
   25277   25280   25280   25281   25280   25282   25280   25283
   25283   25284   25283   25285   25283   25286   25286   25287
   25286   25288   25286   25289   25289   25290   25289   25291
   25289   25292   25292   25293   25292   25294   25292   25295
   25295   25296   25295   25297   25297   25298   25297   25299
   25299   25300   25299   25301   25299   25302   25302   25303
   25302   25304   25302   25305   25305   25306   25305   25307
   25305   25308   25308   25309   25308   25310   25308   25311
   25311   25312   25311   25313   25311   25314   25314   25315
   25314   25316   25314   25317   25317   25318   25317   25319
   25317   25320   25320   25321   25320   25322   25320   25323
   25324   25325   25324   25326   25324   25327   25327   25328
   25327   25329   25327   25330   25330   25331   25330   25332
   25330   25333   25333   25334   25333   25335   25333   25336
   25336   25337   25336   25338   25336   25339   25339   25340
   25339   25341   25339   25342   25342   25343   25342   25344
   25342   25345   25345   25346   25345   25347   25345   25348
   25348   25349   25348   25350   25348   25351   25351   25352
   25351   25353   25351   25354   25354   25355   25354   25356
   25354   25357   25357   25358   25357   25359   25357   25360
   25360   25361   25360   25362   25360   25363   25363   25364
   25363   25365   25363   25366   25367   25376   25367   25372
   25367   25368   25367   25380   25368   25369   25368   25370
   25368   25371   25372   25373   25372   25374   25372   25375
   25376   25377   25376   25378   25376   25379   25380   25381
   25380   25382   25380   25383   25383   25384   25383   25385
   25383   25390   25386   25387   25386   25388   25386   25389
   25386   25390   25389   25391   25391   25392   25391   25393
   25391   25396   25394   25395   25394   25446   25394   25396
   25396   25397   25396   25398   25398   25399   25398   25400
   25398   25402   25400   25401   25402   25403   25402   25404
   25404   25405   25404   25406   25406   25407   25406   25408
   25406   25409   25409   25410   25409   25411   25409   25412
   25412   25413   25412   25414   25412   25415   25415   25416
   25415   25417   25415   25418   25418   25419   25418   25420
   25418   25421   25421   25422   25421   25423   25421   25424
   25424   25425   25424   25426   25424   25427   25427   25428
   25427   25429   25427   25430   25430   25431   25430   25432
   25430   25433   25433   25434   25433   25435   25433   25436
   25436   25437   25436   25438   25436   25439   25439   25440
   25439   25441   25439   25442   25442   25443   25442   25444
   25442   25445   25446   25448   25446   25447   25448   25449
   25448   25450   25448   25451   25451   25452   25451   25453
   25451   25454   25454   25455   25454   25456   25454   25457
   25457   25458   25457   25459   25457   25460   25460   25461
   25460   25462   25460   25463   25463   25464   25463   25465
   25463   25466   25466   25467   25466   25468   25466   25469
   25469   25470   25469   25471   25469   25472   25472   25473
   25472   25474   25472   25475   25475   25476   25475   25477
   25475   25478   25478   25479   25478   25480   25478   25481
   25481   25482   25481   25483   25481   25484   25484   25485
   25484   25486   25484   25487   25487   25488   25487   25489
   25487   25490   25490   25491   25490   25492   25490   25493
   25494   25498   25494   25502   25494   25506   25494   25495
   25495   25496   25495   25497   25495   25510   25498   25499
   25498   25500   25498   25501   25502   25503   25502   25504
   25502   25505   25506   25507   25506   25508   25506   25509
   25510   25511   25510   25512   25510   25516   25513   25517
   25513   25514   25513   25515   25513   25516   25517   25518
   25518   25519   25518   25520   25518   25521   25521   25522
   25521   25529   25521   25523   25523   25524   25524   25526
   25524   25525   25526   25527   25526   25528   25526   25538
   25529   25530   25529   25531   25529   25532   25532   25533
   25533   25535   25533   25534   25535   25536   25535   25537
   25535   25585   25538   25539   25538   25540   25538   25541
   25541   25542   25541   25543   25541   25544   25544   25545
   25544   25546   25544   25547   25547   25548   25547   25549
   25547   25550   25550   25551   25550   25552   25550   25553
   25553   25554   25553   25555   25553   25556   25556   25557
   25556   25558   25558   25559   25558   25560   25560   25561
   25560   25562   25560   25563   25563   25564   25563   25565
   25563   25566   25566   25567   25566   25568   25566   25569
   25569   25570   25569   25571   25569   25572   25572   25573
   25572   25574   25572   25575   25575   25576   25575   25577
   25575   25578   25578   25579   25578   25580   25578   25581
   25581   25582   25581   25583   25581   25584   25585   25586
   25585   25587   25585   25588   25588   25589   25588   25590
   25588   25591   25591   25592   25591   25593   25591   25594
   25594   25595   25594   25596   25594   25597   25597   25598
   25597   25599   25597   25600   25600   25601   25600   25602
   25600   25603   25603   25604   25603   25605   25603   25606
   25606   25607   25606   25608   25606   25609   25609   25610
   25609   25611   25609   25612   25612   25613   25612   25614
   25612   25615   25615   25616   25615   25617   25615   25618
   25618   25619   25618   25620   25618   25621   25621   25622
   25621   25623   25621   25624   25624   25625   25624   25626
   25624   25627   25628   25629   25628   25630   25628   25631
   25628   25632   25632   25633   25632   25634   25632   25635
   25635   25636   25635   25637   25635   25642   25638   25641
   25638   25639   25638   25640   25638   25642   25641   25643
   25643   25644   25643   25645   25643   25646   25646   25647
   25646   25654   25646   25648   25648   25649   25649   25651
   25649   25650   25651   25652   25651   25653   25651   25663
   25654   25655   25654   25656   25654   25657   25657   25658
   25658   25660   25658   25659   25660   25661   25660   25662
   25660   25710   25663   25664   25663   25665   25663   25666
   25666   25667   25666   25668   25666   25669   25669   25670
   25669   25671   25669   25672   25672   25673   25672   25674
   25672   25675   25675   25676   25675   25677   25675   25678
   25678   25679   25678   25680   25678   25681   25681   25682
   25681   25683   25683   25684   25683   25685   25685   25686
   25685   25687   25685   25688   25688   25689   25688   25690
   25688   25691   25691   25692   25691   25693   25691   25694
   25694   25695   25694   25696   25694   25697   25697   25698
   25697   25699   25697   25700   25700   25701   25700   25702
   25700   25703   25703   25704   25703   25705   25703   25706
   25706   25707   25706   25708   25706   25709   25710   25711
   25710   25712   25710   25713   25713   25714   25713   25715
   25713   25716   25716   25717   25716   25718   25716   25719
   25719   25720   25719   25721   25719   25722   25722   25723
   25722   25724   25722   25725   25725   25726   25725   25727
   25725   25728   25728   25729   25728   25730   25728   25731
   25731   25732   25731   25733   25731   25734   25734   25735
   25734   25736   25734   25737   25737   25738   25737   25739
   25737   25740   25740   25741   25740   25742   25740   25743
   25743   25744   25743   25745   25743   25746   25746   25747
   25746   25748   25746   25749   25749   25750   25749   25751
   25749   25752   25753   25757   25753   25761   25753   25765
   25753   25754   25754   25755   25754   25756   25754   25769
   25757   25758   25757   25759   25757   25760   25761   25762
   25761   25763   25761   25764   25765   25766   25765   25767
   25765   25768   25769   25770   25769   25771   25769   25775
   25772   25776   25772   25773   25772   25774   25772   25775
   25776   25777   25777   25778   25777   25779   25777   25780
   25780   25781   25780   25788   25780   25782   25782   25783
   25783   25785   25783   25784   25785   25786   25785   25787
   25785   25797   25788   25789   25788   25790   25788   25791
   25791   25792   25792   25794   25792   25793   25794   25795
   25794   25796   25794   25844   25797   25798   25797   25799
   25797   25800   25800   25801   25800   25802   25800   25803
   25803   25804   25803   25805   25803   25806   25806   25807
   25806   25808   25806   25809   25809   25810   25809   25811
   25809   25812   25812   25813   25812   25814   25812   25815
   25815   25816   25815   25817   25817   25818   25817   25819
   25819   25820   25819   25821   25819   25822   25822   25823
   25822   25824   25822   25825   25825   25826   25825   25827
   25825   25828   25828   25829   25828   25830   25828   25831
   25831   25832   25831   25833   25831   25834   25834   25835
   25834   25836   25834   25837   25837   25838   25837   25839
   25837   25840   25840   25841   25840   25842   25840   25843
   25844   25845   25844   25846   25844   25847   25847   25848
   25847   25849   25847   25850   25850   25851   25850   25852
   25850   25853   25853   25854   25853   25855   25853   25856
   25856   25857   25856   25858   25856   25859   25859   25860
   25859   25861   25859   25862   25862   25863   25862   25864
   25862   25865   25865   25866   25865   25867   25865   25868
   25868   25869   25868   25870   25868   25871   25871   25872
   25871   25873   25871   25874   25874   25875   25874   25876
   25874   25877   25877   25878   25877   25879   25877   25880
   25880   25881   25880   25882   25880   25883   25883   25884
   25883   25885   25883   25886   25887   25888   25887   25889
   25887   25890   25887   25891   25891   25892   25891   25893
   25891   25894   25894   25895   25894   25896   25894   25901
   25897   25900   25897   25898   25897   25899   25897   25901
   25900   25902   25902   25903   25902   25904   25902   25905
   25905   25906   25905   25913   25905   25907   25907   25908
   25908   25910   25908   25909   25910   25911   25910   25912
   25910   25922   25913   25914   25913   25915   25913   25916
   25916   25917   25917   25919   25917   25918   25919   25920
   25919   25921   25919   25969   25922   25923   25922   25924
   25922   25925   25925   25926   25925   25927   25925   25928
   25928   25929   25928   25930   25928   25931   25931   25932
   25931   25933   25931   25934   25934   25935   25934   25936
   25934   25937   25937   25938   25937   25939   25937   25940
   25940   25941   25940   25942   25942   25943   25942   25944
   25944   25945   25944   25946   25944   25947   25947   25948
   25947   25949   25947   25950   25950   25951   25950   25952
   25950   25953   25953   25954   25953   25955   25953   25956
   25956   25957   25956   25958   25956   25959   25959   25960
   25959   25961   25959   25962   25962   25963   25962   25964
   25962   25965   25965   25966   25965   25967   25965   25968
   25969   25970   25969   25971   25969   25972   25972   25973
   25972   25974   25972   25975   25975   25976   25975   25977
   25975   25978   25978   25979   25978   25980   25978   25981
   25981   25982   25981   25983   25981   25984   25984   25985
   25984   25986   25984   25987   25987   25988   25987   25989
   25987   25990   25990   25991   25990   25992   25990   25993
   25993   25994   25993   25995   25993   25996   25996   25997
   25996   25998   25996   25999   25999   26000   25999   26001
   25999   26002   26002   26003   26002   26004   26002   26005
   26005   26006   26005   26007   26005   26008   26008   26009
   26008   26010   26008   26011   26012   26013   26012   26014
   26012   26015   26012   26016   26016   26017   26016   26018
   26016   26019   26019   26020   26019   26021   26019   26026
   26022   26025   26022   26023   26022   26024   26022   26026
   26025   26027   26027   26028   26027   26029   26027   26030
   26030   26031   26030   26038   26030   26032   26032   26033
   26033   26035   26033   26034   26035   26036   26035   26037
   26035   26047   26038   26039   26038   26040   26038   26041
   26041   26042   26042   26044   26042   26043   26044   26045
   26044   26046   26044   26094   26047   26048   26047   26049
   26047   26050   26050   26051   26050   26052   26050   26053
   26053   26054   26053   26055   26053   26056   26056   26057
   26056   26058   26056   26059   26059   26060   26059   26061
   26059   26062   26062   26063   26062   26064   26062   26065
   26065   26066   26065   26067   26067   26068   26067   26069
   26069   26070   26069   26071   26069   26072   26072   26073
   26072   26074   26072   26075   26075   26076   26075   26077
   26075   26078   26078   26079   26078   26080   26078   26081
   26081   26082   26081   26083   26081   26084   26084   26085
   26084   26086   26084   26087   26087   26088   26087   26089
   26087   26090   26090   26091   26090   26092   26090   26093
   26094   26095   26094   26096   26094   26097   26097   26098
   26097   26099   26097   26100   26100   26101   26100   26102
   26100   26103   26103   26104   26103   26105   26103   26106
   26106   26107   26106   26108   26106   26109   26109   26110
   26109   26111   26109   26112   26112   26113   26112   26114
   26112   26115   26115   26116   26115   26117   26115   26118
   26118   26119   26118   26120   26118   26121   26121   26122
   26121   26123   26121   26124   26124   26125   26124   26126
   26124   26127   26127   26128   26127   26129   26127   26130
   26130   26131   26130   26132   26130   26133   26133   26134
   26133   26135   26133   26136   26137   26146   26137   26142
   26137   26138   26137   26150   26138   26139   26138   26140
   26138   26141   26142   26143   26142   26144   26142   26145
   26146   26147   26146   26148   26146   26149   26150   26151
   26150   26152   26150   26153   26153   26154   26153   26155
   26153   26160   26156   26157   26156   26158   26156   26159
   26156   26160   26159   26161   26161   26162   26161   26163
   26161   26166   26164   26165   26164   26216   26164   26166
   26166   26167   26166   26168   26168   26169   26168   26170
   26168   26172   26170   26171   26172   26173   26172   26174
   26174   26175   26174   26176   26176   26177   26176   26178
   26176   26179   26179   26180   26179   26181   26179   26182
   26182   26183   26182   26184   26182   26185   26185   26186
   26185   26187   26185   26188   26188   26189   26188   26190
   26188   26191   26191   26192   26191   26193   26191   26194
   26194   26195   26194   26196   26194   26197   26197   26198
   26197   26199   26197   26200   26200   26201   26200   26202
   26200   26203   26203   26204   26203   26205   26203   26206
   26206   26207   26206   26208   26206   26209   26209   26210
   26209   26211   26209   26212   26212   26213   26212   26214
   26212   26215   26216   26218   26216   26217   26218   26219
   26218   26220   26218   26221   26221   26222   26221   26223
   26221   26224   26224   26225   26224   26226   26224   26227
   26227   26228   26227   26229   26227   26230   26230   26231
   26230   26232   26230   26233   26233   26234   26233   26235
   26233   26236   26236   26237   26236   26238   26236   26239
   26239   26240   26239   26241   26239   26242   26242   26243
   26242   26244   26242   26245   26245   26246   26245   26247
   26245   26248   26248   26249   26248   26250   26248   26251
   26251   26252   26251   26253   26251   26254   26254   26255
   26254   26256   26254   26257   26257   26258   26257   26259
   26257   26260   26260   26261   26260   26262   26260   26263
   26264   26268   26264   26272   26264   26276   26264   26265
   26265   26266   26265   26267   26265   26280   26268   26269
   26268   26270   26268   26271   26272   26273   26272   26274
   26272   26275   26276   26277   26276   26278   26276   26279
   26280   26281   26280   26282   26280   26286   26283   26287
   26283   26284   26283   26285   26283   26286   26287   26288
   26288   26289   26288   26290   26288   26291   26291   26292
   26291   26299   26291   26293   26293   26294   26294   26296
   26294   26295   26296   26297   26296   26298   26296   26308
   26299   26300   26299   26301   26299   26302   26302   26303
   26303   26305   26303   26304   26305   26306   26305   26307
   26305   26355   26308   26309   26308   26310   26308   26311
   26311   26312   26311   26313   26311   26314   26314   26315
   26314   26316   26314   26317   26317   26318   26317   26319
   26317   26320   26320   26321   26320   26322   26320   26323
   26323   26324   26323   26325   26323   26326   26326   26327
   26326   26328   26328   26329   26328   26330   26330   26331
   26330   26332   26330   26333   26333   26334   26333   26335
   26333   26336   26336   26337   26336   26338   26336   26339
   26339   26340   26339   26341   26339   26342   26342   26343
   26342   26344   26342   26345   26345   26346   26345   26347
   26345   26348   26348   26349   26348   26350   26348   26351
   26351   26352   26351   26353   26351   26354   26355   26356
   26355   26357   26355   26358   26358   26359   26358   26360
   26358   26361   26361   26362   26361   26363   26361   26364
   26364   26365   26364   26366   26364   26367   26367   26368
   26367   26369   26367   26370   26370   26371   26370   26372
   26370   26373   26373   26374   26373   26375   26373   26376
   26376   26377   26376   26378   26376   26379   26379   26380
   26379   26381   26379   26382   26382   26383   26382   26384
   26382   26385   26385   26386   26385   26387   26385   26388
   26388   26389   26388   26390   26388   26391   26391   26392
   26391   26393   26391   26394   26394   26395   26394   26396
   26394   26397   26398   26399   26398   26400   26398   26401
   26398   26402   26402   26403   26402   26404   26402   26405
   26405   26406   26405   26407   26405   26412   26408   26411
   26408   26409   26408   26410   26408   26412   26411   26413
   26413   26414   26413   26415   26413   26416   26416   26417
   26416   26424   26416   26418   26418   26419   26419   26421
   26419   26420   26421   26422   26421   26423   26421   26433
   26424   26425   26424   26426   26424   26427   26427   26428
   26428   26430   26428   26429   26430   26431   26430   26432
   26430   26480   26433   26434   26433   26435   26433   26436
   26436   26437   26436   26438   26436   26439   26439   26440
   26439   26441   26439   26442   26442   26443   26442   26444
   26442   26445   26445   26446   26445   26447   26445   26448
   26448   26449   26448   26450   26448   26451   26451   26452
   26451   26453   26453   26454   26453   26455   26455   26456
   26455   26457   26455   26458   26458   26459   26458   26460
   26458   26461   26461   26462   26461   26463   26461   26464
   26464   26465   26464   26466   26464   26467   26467   26468
   26467   26469   26467   26470   26470   26471   26470   26472
   26470   26473   26473   26474   26473   26475   26473   26476
   26476   26477   26476   26478   26476   26479   26480   26481
   26480   26482   26480   26483   26483   26484   26483   26485
   26483   26486   26486   26487   26486   26488   26486   26489
   26489   26490   26489   26491   26489   26492   26492   26493
   26492   26494   26492   26495   26495   26496   26495   26497
   26495   26498   26498   26499   26498   26500   26498   26501
   26501   26502   26501   26503   26501   26504   26504   26505
   26504   26506   26504   26507   26507   26508   26507   26509
   26507   26510   26510   26511   26510   26512   26510   26513
   26513   26514   26513   26515   26513   26516   26516   26517
   26516   26518   26516   26519   26519   26520   26519   26521
   26519   26522   26523   26527   26523   26531   26523   26535
   26523   26524   26524   26525   26524   26526   26524   26539
   26527   26528   26527   26529   26527   26530   26531   26532
   26531   26533   26531   26534   26535   26536   26535   26537
   26535   26538   26539   26540   26539   26541   26539   26545
   26542   26546   26542   26543   26542   26544   26542   26545
   26546   26547   26547   26548   26547   26549   26547   26550
   26550   26551   26550   26558   26550   26552   26552   26553
   26553   26555   26553   26554   26555   26556   26555   26557
   26555   26567   26558   26559   26558   26560   26558   26561
   26561   26562   26562   26564   26562   26563   26564   26565
   26564   26566   26564   26614   26567   26568   26567   26569
   26567   26570   26570   26571   26570   26572   26570   26573
   26573   26574   26573   26575   26573   26576   26576   26577
   26576   26578   26576   26579   26579   26580   26579   26581
   26579   26582   26582   26583   26582   26584   26582   26585
   26585   26586   26585   26587   26587   26588   26587   26589
   26589   26590   26589   26591   26589   26592   26592   26593
   26592   26594   26592   26595   26595   26596   26595   26597
   26595   26598   26598   26599   26598   26600   26598   26601
   26601   26602   26601   26603   26601   26604   26604   26605
   26604   26606   26604   26607   26607   26608   26607   26609
   26607   26610   26610   26611   26610   26612   26610   26613
   26614   26615   26614   26616   26614   26617   26617   26618
   26617   26619   26617   26620   26620   26621   26620   26622
   26620   26623   26623   26624   26623   26625   26623   26626
   26626   26627   26626   26628   26626   26629   26629   26630
   26629   26631   26629   26632   26632   26633   26632   26634
   26632   26635   26635   26636   26635   26637   26635   26638
   26638   26639   26638   26640   26638   26641   26641   26642
   26641   26643   26641   26644   26644   26645   26644   26646
   26644   26647   26647   26648   26647   26649   26647   26650
   26650   26651   26650   26652   26650   26653   26653   26654
   26653   26655   26653   26656   26657   26666   26657   26662
   26657   26658   26657   26670   26658   26659   26658   26660
   26658   26661   26662   26663   26662   26664   26662   26665
   26666   26667   26666   26668   26666   26669   26670   26671
   26670   26672   26670   26673   26673   26674   26673   26675
   26673   26680   26676   26677   26676   26678   26676   26679
   26676   26680   26679   26681   26681   26682   26681   26683
   26681   26686   26684   26685   26684   26736   26684   26686
   26686   26687   26686   26688   26688   26689   26688   26690
   26688   26692   26690   26691   26692   26693   26692   26694
   26694   26695   26694   26696   26696   26697   26696   26698
   26696   26699   26699   26700   26699   26701   26699   26702
   26702   26703   26702   26704   26702   26705   26705   26706
   26705   26707   26705   26708   26708   26709   26708   26710
   26708   26711   26711   26712   26711   26713   26711   26714
   26714   26715   26714   26716   26714   26717   26717   26718
   26717   26719   26717   26720   26720   26721   26720   26722
   26720   26723   26723   26724   26723   26725   26723   26726
   26726   26727   26726   26728   26726   26729   26729   26730
   26729   26731   26729   26732   26732   26733   26732   26734
   26732   26735   26736   26738   26736   26737   26738   26739
   26738   26740   26738   26741   26741   26742   26741   26743
   26741   26744   26744   26745   26744   26746   26744   26747
   26747   26748   26747   26749   26747   26750   26750   26751
   26750   26752   26750   26753   26753   26754   26753   26755
   26753   26756   26756   26757   26756   26758   26756   26759
   26759   26760   26759   26761   26759   26762   26762   26763
   26762   26764   26762   26765   26765   26766   26765   26767
   26765   26768   26768   26769   26768   26770   26768   26771
   26771   26772   26771   26773   26771   26774   26774   26775
   26774   26776   26774   26777   26777   26778   26777   26779
   26777   26780   26780   26781   26780   26782   26780   26783
   26784   26788   26784   26792   26784   26796   26784   26785
   26785   26786   26785   26787   26785   26800   26788   26789
   26788   26790   26788   26791   26792   26793   26792   26794
   26792   26795   26796   26797   26796   26798   26796   26799
   26800   26801   26800   26802   26800   26806   26803   26807
   26803   26804   26803   26805   26803   26806   26807   26808
   26808   26809   26808   26810   26808   26811   26811   26812
   26811   26819   26811   26813   26813   26814   26814   26816
   26814   26815   26816   26817   26816   26818   26816   26828
   26819   26820   26819   26821   26819   26822   26822   26823
   26823   26825   26823   26824   26825   26826   26825   26827
   26825   26875   26828   26829   26828   26830   26828   26831
   26831   26832   26831   26833   26831   26834   26834   26835
   26834   26836   26834   26837   26837   26838   26837   26839
   26837   26840   26840   26841   26840   26842   26840   26843
   26843   26844   26843   26845   26843   26846   26846   26847
   26846   26848   26848   26849   26848   26850   26850   26851
   26850   26852   26850   26853   26853   26854   26853   26855
   26853   26856   26856   26857   26856   26858   26856   26859
   26859   26860   26859   26861   26859   26862   26862   26863
   26862   26864   26862   26865   26865   26866   26865   26867
   26865   26868   26868   26869   26868   26870   26868   26871
   26871   26872   26871   26873   26871   26874   26875   26876
   26875   26877   26875   26878   26878   26879   26878   26880
   26878   26881   26881   26882   26881   26883   26881   26884
   26884   26885   26884   26886   26884   26887   26887   26888
   26887   26889   26887   26890   26890   26891   26890   26892
   26890   26893   26893   26894   26893   26895   26893   26896
   26896   26897   26896   26898   26896   26899   26899   26900
   26899   26901   26899   26902   26902   26903   26902   26904
   26902   26905   26905   26906   26905   26907   26905   26908
   26908   26909   26908   26910   26908   26911   26911   26912
   26911   26913   26911   26914   26914   26915   26914   26916
   26914   26917   26918   26919   26918   26920   26918   26921
   26918   26922   26922   26923   26922   26927   26922   26924
   26924   26925   26924   26926   26927   26928   26927   26929
   26927   26933   26930   26934   26930   26931   26930   26932
   26930   26933   26934   26935   26935   26936   26935   26937
   26935   26938   26938   26939   26938   26946   26938   26940
   26940   26941   26941   26943   26941   26942   26943   26944
   26943   26945   26943   26955   26946   26947   26946   26948
   26946   26949   26949   26950   26950   26952   26950   26951
   26952   26953   26952   26954   26952   27002   26955   26956
   26955   26957   26955   26958   26958   26959   26958   26960
   26958   26961   26961   26962   26961   26963   26961   26964
   26964   26965   26964   26966   26964   26967   26967   26968
   26967   26969   26967   26970   26970   26971   26970   26972
   26970   26973   26973   26974   26973   26975   26975   26976
   26975   26977   26977   26978   26977   26979   26977   26980
   26980   26981   26980   26982   26980   26983   26983   26984
   26983   26985   26983   26986   26986   26987   26986   26988
   26986   26989   26989   26990   26989   26991   26989   26992
   26992   26993   26992   26994   26992   26995   26995   26996
   26995   26997   26995   26998   26998   26999   26998   27000
   26998   27001   27002   27003   27002   27004   27002   27005
   27005   27006   27005   27007   27005   27008   27008   27009
   27008   27010   27008   27011   27011   27012   27011   27013
   27011   27014   27014   27015   27014   27016   27014   27017
   27017   27018   27017   27019   27017   27020   27020   27021
   27020   27022   27020   27023   27023   27024   27023   27025
   27023   27026   27026   27027   27026   27028   27026   27029
   27029   27030   27029   27031   27029   27032   27032   27033
   27032   27034   27032   27035   27035   27036   27035   27037
   27035   27038   27038   27039   27038   27040   27038   27041
   27041   27042   27041   27043   27041   27044

   29292 !NTHETA: angles
       1       5       6       1       5       7       2       1       4
       2       1       3       3       1       4       5       7       9
       5       7       8       4       1       5       3       1       5
       2       1       5       7       9      10       7       9      22
       6       5       7       8       7       9       9      22      23
       9      22      24       9      11      13       9      11      12
       9      11      14      11      14      16      11      14      15
      11      14      17      10       9      11      11       9      22
       7       9      11      12      11      13      14      17      18
      14      17      19      13      11      14      12      11      14
      15      14      16      17      19      21      17      19      20
      16      14      17      15      14      17      18      17      19
      20      19      21      10       9      22      24      26      27
      24      26      32      23      22      24      22      24      25
      25      24      26      26      32      33      26      32      34
      26      28      31      26      28      30      26      28      29
      22      24      26      27      26      28      28      26      32
      24      26      28      29      28      31      29      28      30
      30      28      31      27      26      32      34      38      39
      34      38      40      34      35      37      34      35      36
      33      32      34      35      43      45      35      43      44
      32      34      35      36      35      37      38      46      47
      38      46      48      38      40      42      38      40      41
      38      40      43      32      34      38      35      34      38
      40      43      45      40      43      44      35      43      40
      39      38      40      41      40      42      42      40      43
      41      40      43      37      35      43      36      35      43
      34      35      43      44      43      45      39      38      46
      40      38      46      34      38      46      48      50      51
      48      50      56      47      46      48      46      48      49
      49      48      50      50      56      57      50      56      58
      50      52      55      50      52      54      50      52      53
      46      48      50      51      50      52      52      50      56
      48      50      52      53      52      55      53      52      54
      54      52      55      51      50      56      58      60      61
      58      60      77      57      56      58      56      58      59
      59      58      60      60      77      78      60      77      79
      60      62      64      60      62      63      60      62      65
      56      58      60      62      65      66      62      65      73
      61      60      62      62      60      77      58      60      62
      63      62      64      65      73      75      65      73      74
      64      62      65      63      62      65      66      68      70
      66      68      69      65      66      67      65      66      68
      67      66      68      69      68      70      70      75      73
      70      75      76      70      71      72      68      70      71
      66      65      73      74      73      75      68      70      75
      71      70      75      73      75      76      61      60      77
      79      81      82      79      81      99      78      77      79
      77      79      80      80      79      81      81      99     100
      81      99     101      81      83      85      81      83      84
      81      83      86      77      79      81      83      86      88
      83      86      87      83      86      89      82      81      83
      83      81      99      79      81      83      84      83      85
      86      89      91      86      89      90      86      89      92
      85      83      86      84      83      86      87      86      88
      89      92      94      89      92      93      89      92      95
      88      86      89      87      86      89      90      89      91
      92      95      98      92      95      97      92      95      96
      91      89      92      90      89      92      93      92      94
      94      92      95      93      92      95      96      95      98
      96      95      97      97      95      98      82      81      99
     101     103     104     101     103     121     100      99     101
      99     101     102     102     101     103     103     121     122
     103     121     123     103     105     107     103     105     106
     103     105     108      99     101     103     105     108     110
     105     108     109     105     108     111     104     103     105
     105     103     121     101     103     105     106     105     107
     108     111     113     108     111     112     108     111     114
     107     105     108     106     105     108     109     108     110
     111     114     116     111     114     115     111     114     117
     110     108     111     109     108     111     112     111     113
     114     117     120     114     117     119     114     117     118
     113     111     114     112     111     114     115     114     116
     116     114     117     115     114     117     118     117     120
     118     117     119     119     117     120     104     103     121
     123     125     126     123     125     131     122     121     123
     121     123     124     124     123     125     125     131     132
     125     131     133     125     127     130     125     127     129
     125     127     128     121     123     125     126     125     127
     127     125     131     123     125     127     128     127     130
     128     127     129     129     127     130     126     125     131
     133     135     136     133     135     141     132     131     133
     131     133     134     134     133     135     135     141     142
     135     141     143     135     137     140     135     137     139
     135     137     138     131     133     135     136     135     137
     137     135     141     133     135     137     138     137     140
     138     137     139     139     137     140     136     135     141
     143     145     146     143     145     163     142     141     143
     141     143     144     144     143     145     145     163     164
     145     163     165     145     147     149     145     147     148
     145     147     150     141     143     145     147     150     152
     147     150     151     147     150     153     146     145     147
     147     145     163     143     145     147     148     147     149
     150     153     155     150     153     154     150     153     156
     149     147     150     148     147     150     151     150     152
     153     156     158     153     156     157     153     156     159
     152     150     153     151     150     153     154     153     155
     156     159     162     156     159     161     156     159     160
     155     153     156     154     153     156     157     156     158
     158     156     159     157     156     159     160     159     162
     160     159     161     161     159     162     146     145     163
     165     167     168     165     167     185     164     163     165
     163     165     166     166     165     167     167     185     186
     167     185     187     167     169     171     167     169     170
     167     169     172     163     165     167     169     172     174
     169     172     173     169     172     175     168     167     169
     169     167     185     165     167     169     170     169     171
     172     175     177     172     175     176     172     175     178
     171     169     172     170     169     172     173     172     174
     175     178     180     175     178     179     175     178     181
     174     172     175     173     172     175     176     175     177
     178     181     184     178     181     183     178     181     182
     177     175     178     176     175     178     179     178     180
     180     178     181     179     178     181     182     181     184
     182     181     183     183     181     184     168     167     185
     187     189     190     187     189     204     186     185     187
     185     187     188     188     187     189     189     204     205
     189     204     206     189     191     193     189     191     192
     189     191     194     185     187     189     191     194     195
     191     194     200     191     194     196     190     189     191
     191     189     204     187     189     191     192     191     193
     194     200     203     194     200     202     194     200     201
     194     196     199     194     196     198     194     196     197
     193     191     194     192     191     194     195     194     196
     196     194     200     197     196     199     197     196     198
     198     196     199     195     194     200     201     200     203
     201     200     202     202     200     203     190     189     204
     206     208     209     206     208     214     205     204     206
     204     206     207     207     206     208     208     214     215
     208     214     216     208     210     213     208     210     212
     208     210     211     204     206     208     209     208     210
     210     208     214     206     208     210     211     210     213
     211     210     212     212     210     213     209     208     214
     216     218     219     216     218     229     215     214     216
     214     216     217     217     216     218     218     229     230
     218     229     231     218     220     222     218     220     221
     218     220     223     214     216     218     220     223     225
     220     223     224     220     223     226     219     218     220
     220     218     229     216     218     220     221     220     222
     223     226     227     223     226     228     222     220     223
     221     220     223     224     223     225     225     223     226
     224     223     226     227     226     228     219     218     229
     231     233     234     231     233     240     230     229     231
     229     231     232     232     231     233     233     235     237
     233     235     236     233     235     238     229     231     233
     235     238     239     234     233     235     235     233     240
     231     233     235     236     235     237     237     235     238
     236     235     238     234     233     240     233     240     241
     233     240     242     241     240     242     244     243     245
     247     246     248     250     249     251     253     252     254
     256     255     257     259     258     260     262     261     263
     265     264     266     268     267     269     271     270     272
     274     273     275     277     276     278     280     279     281
     283     282     284     286     285     287     289     288     290
     292     291     293     295     294     296     298     297     299
     301     300     302     304     303     305     307     306     308
     310     309     311     313     312     314     316     315     317
     319     318     320     322     321     323     325     324     326
     328     327     329     331     330     332     334     333     335
     337     336     338     340     339     341     343     342     344
     346     345     347     349     348     350     352     351     353
     355     354     356     358     357     359     361     360     362
     364     363     365     367     366     368     370     369     371
     373     372     374     376     375     377     379     378     380
     382     381     383     385     384     386     388     387     389
     391     390     392     394     393     395     397     396     398
     400     399     401     403     402     404     406     405     407
     409     408     410     412     411     413     415     414     416
     418     417     419     421     420     422     424     423     425
     427     426     428     430     429     431     433     432     434
     436     435     437     439     438     440     442     441     443
     445     444     446     448     447     449     451     450     452
     454     453     455     457     456     458     460     459     461
     463     462     464     466     465     467     469     468     470
     472     471     473     475     474     476     478     477     479
     481     480     482     484     483     485     487     486     488
     490     489     491     493     492     494     496     495     497
     499     498     500     502     501     503     505     504     506
     508     507     509     511     510     512     514     513     515
     517     516     518     520     519     521     523     522     524
     526     525     527     529     528     530     532     531     533
     535     534     536     538     537     539     541     540     542
     544     543     545     547     546     548     550     549     551
     553     552     554     556     555     557     559     558     560
     562     561     563     565     564     566     568     567     569
     571     570     572     574     573     575     577     576     578
     580     579     581     583     582     584     586     585     587
     589     588     590     592     591     593     595     594     596
     598     597     599     601     600     602     604     603     605
     607     606     608     610     609     611     613     612     614
     616     615     617     619     618     620     622     621     623
     625     624     626     628     627     629     631     630     632
     634     633     635     637     636     638     640     639     641
     643     642     644     646     645     647     649     648     650
     652     651     653     655     654     656     658     657     659
     661     660     662     664     663     665     667     666     668
     670     669     671     673     672     674     676     675     677
     679     678     680     682     681     683     685     684     686
     688     687     689     691     690     692     694     693     695
     697     696     698     700     699     701     703     702     704
     706     705     707     709     708     710     712     711     713
     715     714     716     718     717     719     721     720     722
     724     723     725     727     726     728     730     729     731
     733     732     734     736     735     737     739     738     740
     742     741     743     745     744     746     748     747     749
     751     750     752     754     753     755     757     756     758
     760     759     761     763     762     764     766     765     767
     769     768     770     772     771     773     775     774     776
     778     777     779     781     780     782     784     783     785
     787     786     788     790     789     791     793     792     794
     796     795     797     799     798     800     802     801     803
     805     804     806     808     807     809     811     810     812
     814     813     815     817     816     818     820     819     821
     823     822     824     826     825     827     829     828     830
     832     831     833     835     834     836     838     837     839
     841     840     842     844     843     845     847     846     848
     850     849     851     853     852     854     856     855     857
     859     858     860     862     861     863     865     864     866
     868     867     869     871     870     872     874     873     875
     877     876     878     880     879     881     883     882     884
     886     885     887     889     888     890     892     891     893
     895     894     896     898     897     899     901     900     902
     904     903     905     907     906     908     910     909     911
     913     912     914     916     915     917     919     918     920
     922     921     923     925     924     926     928     927     929
     931     930     932     934     933     935     937     936     938
     940     939     941     943     942     944     946     945     947
     949     948     950     952     951     953     955     954     956
     958     957     959     961     960     962     964     963     965
     967     966     968     970     969     971     973     972     974
     976     975     977     979     978     980     982     981     983
     985     984     986     988     987     989     991     990     992
     994     993     995     997     996     998    1000     999    1001
    1003    1002    1004    1006    1005    1007    1009    1008    1010
    1012    1011    1013    1015    1014    1016    1018    1017    1019
    1021    1020    1022    1024    1023    1025    1027    1026    1028
    1030    1029    1031    1033    1032    1034    1036    1035    1037
    1039    1038    1040    1042    1041    1043    1045    1044    1046
    1048    1047    1049    1051    1050    1052    1054    1053    1055
    1057    1056    1058    1060    1059    1061    1063    1062    1064
    1066    1065    1067    1069    1068    1070    1072    1071    1073
    1075    1074    1076    1078    1077    1079    1081    1080    1082
    1084    1083    1085    1087    1086    1088    1090    1089    1091
    1093    1092    1094    1096    1095    1097    1099    1098    1100
    1102    1101    1103    1105    1104    1106    1108    1107    1109
    1111    1110    1112    1114    1113    1115    1117    1116    1118
    1120    1119    1121    1123    1122    1124    1126    1125    1127
    1129    1128    1130    1132    1131    1133    1135    1134    1136
    1138    1137    1139    1141    1140    1142    1144    1143    1145
    1147    1146    1148    1150    1149    1151    1153    1152    1154
    1156    1155    1157    1159    1158    1160    1162    1161    1163
    1165    1164    1166    1168    1167    1169    1171    1170    1172
    1174    1173    1175    1177    1176    1178    1180    1179    1181
    1183    1182    1184    1186    1185    1187    1189    1188    1190
    1192    1191    1193    1195    1194    1196    1198    1197    1199
    1201    1200    1202    1204    1203    1205    1207    1206    1208
    1210    1209    1211    1213    1212    1214    1216    1215    1217
    1219    1218    1220    1222    1221    1223    1225    1224    1226
    1228    1227    1229    1231    1230    1232    1234    1233    1235
    1237    1236    1238    1240    1239    1241    1243    1242    1244
    1246    1245    1247    1249    1248    1250    1252    1251    1253
    1255    1254    1256    1258    1257    1259    1261    1260    1262
    1264    1263    1265    1267    1266    1268    1270    1269    1271
    1273    1272    1274    1276    1275    1277    1279    1278    1280
    1282    1281    1283    1285    1284    1286    1288    1287    1289
    1291    1290    1292    1294    1293    1295    1297    1296    1298
    1300    1299    1301    1303    1302    1304    1306    1305    1307
    1309    1308    1310    1312    1311    1313    1315    1314    1316
    1318    1317    1319    1321    1320    1322    1324    1323    1325
    1327    1326    1328    1330    1329    1331    1333    1332    1334
    1336    1335    1337    1339    1338    1340    1342    1341    1343
    1345    1344    1346    1348    1347    1349    1351    1350    1352
    1354    1353    1355    1357    1356    1358    1360    1359    1361
    1363    1362    1364    1366    1365    1367    1369    1368    1370
    1372    1371    1373    1375    1374    1376    1378    1377    1379
    1381    1380    1382    1384    1383    1385    1387    1386    1388
    1390    1389    1391    1393    1392    1394    1396    1395    1397
    1399    1398    1400    1402    1401    1403    1405    1404    1406
    1408    1407    1409    1411    1410    1412    1414    1413    1415
    1417    1416    1418    1420    1419    1421    1423    1422    1424
    1426    1425    1427    1429    1428    1430    1432    1431    1433
    1435    1434    1436    1438    1437    1439    1441    1440    1442
    1444    1443    1445    1447    1446    1448    1450    1449    1451
    1453    1452    1454    1456    1455    1457    1459    1458    1460
    1462    1461    1463    1465    1464    1466    1468    1467    1469
    1471    1470    1472    1474    1473    1475    1477    1476    1478
    1480    1479    1481    1483    1482    1484    1486    1485    1487
    1489    1488    1490    1492    1491    1493    1495    1494    1496
    1498    1497    1499    1501    1500    1502    1504    1503    1505
    1507    1506    1508    1510    1509    1511    1513    1512    1514
    1516    1515    1517    1519    1518    1520    1522    1521    1523
    1525    1524    1526    1528    1527    1529    1531    1530    1532
    1534    1533    1535    1537    1536    1538    1540    1539    1541
    1543    1542    1544    1546    1545    1547    1549    1548    1550
    1552    1551    1553    1555    1554    1556    1558    1557    1559
    1561    1560    1562    1564    1563    1565    1567    1566    1568
    1570    1569    1571    1573    1572    1574    1576    1575    1577
    1579    1578    1580    1582    1581    1583    1585    1584    1586
    1588    1587    1589    1591    1590    1592    1594    1593    1595
    1597    1596    1598    1600    1599    1601    1603    1602    1604
    1606    1605    1607    1609    1608    1610    1612    1611    1613
    1615    1614    1616    1618    1617    1619    1621    1620    1622
    1624    1623    1625    1627    1626    1628    1630    1629    1631
    1633    1632    1634    1636    1635    1637    1639    1638    1640
    1642    1641    1643    1645    1644    1646    1648    1647    1649
    1651    1650    1652    1654    1653    1655    1657    1656    1658
    1660    1659    1661    1663    1662    1664    1666    1665    1667
    1669    1668    1670    1672    1671    1673    1675    1674    1676
    1678    1677    1679    1681    1680    1682    1684    1683    1685
    1687    1686    1688    1690    1689    1691    1693    1692    1694
    1696    1695    1697    1699    1698    1700    1702    1701    1703
    1705    1704    1706    1708    1707    1709    1711    1710    1712
    1714    1713    1715    1717    1716    1718    1720    1719    1721
    1723    1722    1724    1726    1725    1727    1729    1728    1730
    1732    1731    1733    1735    1734    1736    1738    1737    1739
    1741    1740    1742    1744    1743    1745    1747    1746    1748
    1750    1749    1751    1753    1752    1754    1756    1755    1757
    1759    1758    1760    1762    1761    1763    1765    1764    1766
    1768    1767    1769    1771    1770    1772    1774    1773    1775
    1777    1776    1778    1780    1779    1781    1783    1782    1784
    1786    1785    1787    1789    1788    1790    1792    1791    1793
    1795    1794    1796    1798    1797    1799    1801    1800    1802
    1804    1803    1805    1807    1806    1808    1810    1809    1811
    1813    1812    1814    1816    1815    1817    1819    1818    1820
    1822    1821    1823    1825    1824    1826    1828    1827    1829
    1831    1830    1832    1834    1833    1835    1837    1836    1838
    1840    1839    1841    1843    1842    1844    1846    1845    1847
    1849    1848    1850    1852    1851    1853    1855    1854    1856
    1858    1857    1859    1861    1860    1862    1864    1863    1865
    1867    1866    1868    1870    1869    1871    1873    1872    1874
    1876    1875    1877    1879    1878    1880    1882    1881    1883
    1885    1884    1886    1888    1887    1889    1891    1890    1892
    1894    1893    1895    1897    1896    1898    1900    1899    1901
    1903    1902    1904    1906    1905    1907    1909    1908    1910
    1912    1911    1913    1915    1914    1916    1918    1917    1919
    1921    1920    1922    1924    1923    1925    1927    1926    1928
    1930    1929    1931    1933    1932    1934    1936    1935    1937
    1939    1938    1940    1942    1941    1943    1945    1944    1946
    1948    1947    1949    1951    1950    1952    1954    1953    1955
    1957    1956    1958    1960    1959    1961    1963    1962    1964
    1966    1965    1967    1969    1968    1970    1972    1971    1973
    1975    1974    1976    1978    1977    1979    1981    1980    1982
    1984    1983    1985    1987    1986    1988    1990    1989    1991
    1993    1992    1994    1996    1995    1997    1999    1998    2000
    2002    2001    2003    2005    2004    2006    2008    2007    2009
    2011    2010    2012    2014    2013    2015    2017    2016    2018
    2020    2019    2021    2023    2022    2024    2026    2025    2027
    2029    2028    2030    2032    2031    2033    2035    2034    2036
    2038    2037    2039    2041    2040    2042    2044    2043    2045
    2047    2046    2048    2050    2049    2051    2053    2052    2054
    2056    2055    2057    2059    2058    2060    2062    2061    2063
    2065    2064    2066    2068    2067    2069    2071    2070    2072
    2074    2073    2075    2077    2076    2078    2080    2079    2081
    2083    2082    2084    2086    2085    2087    2089    2088    2090
    2092    2091    2093    2095    2094    2096    2098    2097    2099
    2101    2100    2102    2104    2103    2105    2107    2106    2108
    2110    2109    2111    2113    2112    2114    2116    2115    2117
    2119    2118    2120    2122    2121    2123    2125    2124    2126
    2128    2127    2129    2131    2130    2132    2134    2133    2135
    2137    2136    2138    2140    2139    2141    2143    2142    2144
    2146    2145    2147    2149    2148    2150    2152    2151    2153
    2155    2154    2156    2158    2157    2159    2161    2160    2162
    2164    2163    2165    2167    2166    2168    2170    2169    2171
    2173    2172    2174    2176    2175    2177    2179    2178    2180
    2182    2181    2183    2185    2184    2186    2188    2187    2189
    2191    2190    2192    2194    2193    2195    2197    2196    2198
    2200    2199    2201    2203    2202    2204    2206    2205    2207
    2209    2208    2210    2212    2211    2213    2215    2214    2216
    2218    2217    2219    2221    2220    2222    2224    2223    2225
    2227    2226    2228    2230    2229    2231    2233    2232    2234
    2236    2235    2237    2239    2238    2240    2242    2241    2243
    2245    2244    2246    2248    2247    2249    2251    2250    2252
    2254    2253    2255    2257    2256    2258    2260    2259    2261
    2263    2262    2264    2266    2265    2267    2269    2268    2270
    2272    2271    2273    2275    2274    2276    2278    2277    2279
    2281    2280    2282    2284    2283    2285    2287    2286    2288
    2290    2289    2291    2293    2292    2294    2296    2295    2297
    2299    2298    2300    2302    2301    2303    2305    2304    2306
    2308    2307    2309    2311    2310    2312    2314    2313    2315
    2317    2316    2318    2320    2319    2321    2323    2322    2324
    2326    2325    2327    2329    2328    2330    2332    2331    2333
    2335    2334    2336    2338    2337    2339    2341    2340    2342
    2344    2343    2345    2347    2346    2348    2350    2349    2351
    2353    2352    2354    2356    2355    2357    2359    2358    2360
    2362    2361    2363    2365    2364    2366    2368    2367    2369
    2371    2370    2372    2374    2373    2375    2377    2376    2378
    2380    2379    2381    2383    2382    2384    2386    2385    2387
    2389    2388    2390    2392    2391    2393    2395    2394    2396
    2398    2397    2399    2401    2400    2402    2404    2403    2405
    2407    2406    2408    2410    2409    2411    2413    2412    2414
    2416    2415    2417    2419    2418    2420    2422    2421    2423
    2425    2424    2426    2428    2427    2429    2431    2430    2432
    2434    2433    2435    2437    2436    2438    2440    2439    2441
    2443    2442    2444    2446    2445    2447    2449    2448    2450
    2452    2451    2453    2455    2454    2456    2458    2457    2459
    2461    2460    2462    2464    2463    2465    2467    2466    2468
    2470    2469    2471    2473    2472    2474    2476    2475    2477
    2479    2478    2480    2482    2481    2483    2485    2484    2486
    2488    2487    2489    2491    2490    2492    2494    2493    2495
    2497    2496    2498    2500    2499    2501    2503    2502    2504
    2506    2505    2507    2509    2508    2510    2512    2511    2513
    2515    2514    2516    2518    2517    2519    2521    2520    2522
    2524    2523    2525    2527    2526    2528    2530    2529    2531
    2533    2532    2534    2536    2535    2537    2539    2538    2540
    2542    2541    2543    2545    2544    2546    2548    2547    2549
    2551    2550    2552    2554    2553    2555    2557    2556    2558
    2560    2559    2561    2563    2562    2564    2566    2565    2567
    2569    2568    2570    2572    2571    2573    2575    2574    2576
    2578    2577    2579    2581    2580    2582    2584    2583    2585
    2587    2586    2588    2590    2589    2591    2593    2592    2594
    2596    2595    2597    2599    2598    2600    2602    2601    2603
    2605    2604    2606    2608    2607    2609    2611    2610    2612
    2614    2613    2615    2617    2616    2618    2620    2619    2621
    2623    2622    2624    2626    2625    2627    2629    2628    2630
    2632    2631    2633    2635    2634    2636    2638    2637    2639
    2641    2640    2642    2644    2643    2645    2647    2646    2648
    2650    2649    2651    2653    2652    2654    2656    2655    2657
    2659    2658    2660    2662    2661    2663    2665    2664    2666
    2668    2667    2669    2671    2670    2672    2674    2673    2675
    2677    2676    2678    2680    2679    2681    2683    2682    2684
    2686    2685    2687    2689    2688    2690    2692    2691    2693
    2695    2694    2696    2698    2697    2699    2701    2700    2702
    2704    2703    2705    2707    2706    2708    2710    2709    2711
    2713    2712    2714    2716    2715    2717    2719    2718    2720
    2722    2721    2723    2725    2724    2726    2728    2727    2729
    2731    2730    2732    2734    2733    2735    2737    2736    2738
    2740    2739    2741    2743    2742    2744    2746    2745    2747
    2749    2748    2750    2752    2751    2753    2755    2754    2756
    2758    2757    2759    2761    2760    2762    2764    2763    2765
    2767    2766    2768    2770    2769    2771    2773    2772    2774
    2776    2775    2777    2779    2778    2780    2782    2781    2783
    2785    2784    2786    2788    2787    2789    2791    2790    2792
    2794    2793    2795    2797    2796    2798    2800    2799    2801
    2803    2802    2804    2806    2805    2807    2809    2808    2810
    2812    2811    2813    2815    2814    2816    2818    2817    2819
    2821    2820    2822    2824    2823    2825    2827    2826    2828
    2830    2829    2831    2833    2832    2834    2836    2835    2837
    2839    2838    2840    2842    2841    2843    2845    2844    2846
    2848    2847    2849    2851    2850    2852    2854    2853    2855
    2857    2856    2858    2860    2859    2861    2863    2862    2864
    2866    2865    2867    2869    2868    2870    2872    2871    2873
    2875    2874    2876    2878    2877    2879    2881    2880    2882
    2884    2883    2885    2887    2886    2888    2890    2889    2891
    2893    2892    2894    2896    2895    2897    2899    2898    2900
    2902    2901    2903    2905    2904    2906    2908    2907    2909
    2911    2910    2912    2914    2913    2915    2917    2916    2918
    2920    2919    2921    2923    2922    2924    2926    2925    2927
    2929    2928    2930    2932    2931    2933    2935    2934    2936
    2938    2937    2939    2941    2940    2942    2944    2943    2945
    2947    2946    2948    2950    2949    2951    2953    2952    2954
    2956    2955    2957    2959    2958    2960    2962    2961    2963
    2965    2964    2966    2968    2967    2969    2971    2970    2972
    2974    2973    2975    2977    2976    2978    2980    2979    2981
    2983    2982    2984    2986    2985    2987    2989    2988    2990
    2992    2991    2993    2995    2994    2996    2998    2997    2999
    3001    3000    3002    3004    3003    3005    3007    3006    3008
    3010    3009    3011    3013    3012    3014    3016    3015    3017
    3019    3018    3020    3022    3021    3023    3025    3024    3026
    3028    3027    3029    3031    3030    3032    3034    3033    3035
    3037    3036    3038    3040    3039    3041    3043    3042    3044
    3046    3045    3047    3049    3048    3050    3052    3051    3053
    3055    3054    3056    3058    3057    3059    3061    3060    3062
    3064    3063    3065    3067    3066    3068    3070    3069    3071
    3073    3072    3074    3076    3075    3077    3079    3078    3080
    3082    3081    3083    3085    3084    3086    3088    3087    3089
    3091    3090    3092    3094    3093    3095    3097    3096    3098
    3100    3099    3101    3103    3102    3104    3106    3105    3107
    3109    3108    3110    3112    3111    3113    3115    3114    3116
    3118    3117    3119    3121    3120    3122    3124    3123    3125
    3127    3126    3128    3130    3129    3131    3133    3132    3134
    3136    3135    3137    3139    3138    3140    3142    3141    3143
    3145    3144    3146    3148    3147    3149    3151    3150    3152
    3154    3153    3155    3157    3156    3158    3160    3159    3161
    3163    3162    3164    3166    3165    3167    3169    3168    3170
    3172    3171    3173    3175    3174    3176    3178    3177    3179
    3181    3180    3182    3184    3183    3185    3187    3186    3188
    3190    3189    3191    3193    3192    3194    3196    3195    3197
    3199    3198    3200    3202    3201    3203    3205    3204    3206
    3208    3207    3209    3211    3210    3212    3214    3213    3215
    3217    3216    3218    3220    3219    3221    3223    3222    3224
    3226    3225    3227    3229    3228    3230    3232    3231    3233
    3235    3234    3236    3238    3237    3239    3241    3240    3242
    3244    3243    3245    3247    3246    3248    3250    3249    3251
    3253    3252    3254    3256    3255    3257    3259    3258    3260
    3262    3261    3263    3265    3264    3266    3268    3267    3269
    3271    3270    3272    3274    3273    3275    3277    3276    3278
    3280    3279    3281    3283    3282    3284    3286    3285    3287
    3289    3288    3290    3292    3291    3293    3295    3294    3296
    3298    3297    3299    3301    3300    3302    3304    3303    3305
    3307    3306    3308    3310    3309    3311    3313    3312    3314
    3316    3315    3317    3319    3318    3320    3322    3321    3323
    3325    3324    3326    3328    3327    3329    3331    3330    3332
    3334    3333    3335    3337    3336    3338    3340    3339    3341
    3343    3342    3344    3346    3345    3347    3349    3348    3350
    3352    3351    3353    3355    3354    3356    3358    3357    3359
    3361    3360    3362    3364    3363    3365    3367    3366    3368
    3370    3369    3371    3373    3372    3374    3376    3375    3377
    3379    3378    3380    3382    3381    3383    3385    3384    3386
    3388    3387    3389    3391    3390    3392    3394    3393    3395
    3397    3396    3398    3400    3399    3401    3403    3402    3404
    3406    3405    3407    3409    3408    3410    3412    3411    3413
    3415    3414    3416    3418    3417    3419    3421    3420    3422
    3424    3423    3425    3427    3426    3428    3430    3429    3431
    3433    3432    3434    3436    3435    3437    3439    3438    3440
    3442    3441    3443    3445    3444    3446    3448    3447    3449
    3451    3450    3452    3454    3453    3455    3457    3456    3458
    3460    3459    3461    3463    3462    3464    3466    3465    3467
    3469    3468    3470    3472    3471    3473    3475    3474    3476
    3478    3477    3479    3481    3480    3482    3484    3483    3485
    3487    3486    3488    3490    3489    3491    3493    3492    3494
    3496    3495    3497    3499    3498    3500    3502    3501    3503
    3505    3504    3506    3508    3507    3509    3511    3510    3512
    3514    3513    3515    3517    3516    3518    3520    3519    3521
    3523    3522    3524    3526    3525    3527    3529    3528    3530
    3532    3531    3533    3535    3534    3536    3538    3537    3539
    3541    3540    3542    3544    3543    3545    3547    3546    3548
    3550    3549    3551    3553    3552    3554    3556    3555    3557
    3559    3558    3560    3562    3561    3563    3565    3564    3566
    3568    3567    3569    3571    3570    3572    3574    3573    3575
    3577    3576    3578    3580    3579    3581    3583    3582    3584
    3586    3585    3587    3589    3588    3590    3592    3591    3593
    3595    3594    3596    3598    3597    3599    3601    3600    3602
    3604    3603    3605    3607    3606    3608    3610    3609    3611
    3613    3612    3614    3616    3615    3617    3619    3618    3620
    3622    3621    3623    3625    3624    3626    3628    3627    3629
    3631    3630    3632    3634    3633    3635    3637    3636    3638
    3640    3639    3641    3643    3642    3644    3646    3645    3647
    3649    3648    3650    3652    3651    3653    3655    3654    3656
    3658    3657    3659    3661    3660    3662    3664    3663    3665
    3667    3666    3668    3670    3669    3671    3673    3672    3674
    3676    3675    3677    3679    3678    3680    3682    3681    3683
    3685    3684    3686    3688    3687    3689    3691    3690    3692
    3694    3693    3695    3697    3696    3698    3700    3699    3701
    3703    3702    3704    3706    3705    3707    3709    3708    3710
    3712    3711    3713    3715    3714    3716    3718    3717    3719
    3721    3720    3722    3724    3723    3725    3727    3726    3728
    3730    3729    3731    3733    3732    3734    3736    3735    3737
    3739    3738    3740    3742    3741    3743    3745    3744    3746
    3748    3747    3749    3751    3750    3752    3754    3753    3755
    3757    3756    3758    3760    3759    3761    3763    3762    3764
    3766    3765    3767    3769    3768    3770    3772    3771    3773
    3775    3774    3776    3778    3777    3779    3781    3780    3782
    3784    3783    3785    3787    3786    3788    3790    3789    3791
    3793    3792    3794    3796    3795    3797    3799    3798    3800
    3802    3801    3803    3805    3804    3806    3808    3807    3809
    3811    3810    3812    3814    3813    3815    3817    3816    3818
    3820    3819    3821    3823    3822    3824    3826    3825    3827
    3829    3828    3830    3832    3831    3833    3835    3834    3836
    3838    3837    3839    3841    3840    3842    3844    3843    3845
    3847    3846    3848    3850    3849    3851    3853    3852    3854
    3856    3855    3857    3859    3858    3860    3862    3861    3863
    3865    3864    3866    3868    3867    3869    3871    3870    3872
    3874    3873    3875    3877    3876    3878    3880    3879    3881
    3883    3882    3884    3886    3885    3887    3889    3888    3890
    3892    3891    3893    3895    3894    3896    3898    3897    3899
    3901    3900    3902    3904    3903    3905    3907    3906    3908
    3910    3909    3911    3913    3912    3914    3916    3915    3917
    3919    3918    3920    3922    3921    3923    3925    3924    3926
    3928    3927    3929    3931    3930    3932    3934    3933    3935
    3937    3936    3938    3940    3939    3941    3943    3942    3944
    3946    3945    3947    3949    3948    3950    3952    3951    3953
    3955    3954    3956    3958    3957    3959    3961    3960    3962
    3964    3963    3965    3967    3966    3968    3970    3969    3971
    3973    3972    3974    3976    3975    3977    3979    3978    3980
    3982    3981    3983    3985    3984    3986    3988    3987    3989
    3991    3990    3992    3994    3993    3995    3997    3996    3998
    4000    3999    4001    4003    4002    4004    4006    4005    4007
    4009    4008    4010    4012    4011    4013    4015    4014    4016
    4018    4017    4019    4021    4020    4022    4024    4023    4025
    4027    4026    4028    4030    4029    4031    4033    4032    4034
    4036    4035    4037    4039    4038    4040    4042    4041    4043
    4045    4044    4046    4048    4047    4049    4051    4050    4052
    4054    4053    4055    4057    4056    4058    4060    4059    4061
    4063    4062    4064    4066    4065    4067    4069    4068    4070
    4072    4071    4073    4075    4074    4076    4078    4077    4079
    4081    4080    4082    4084    4083    4085    4087    4086    4088
    4090    4089    4091    4093    4092    4094    4096    4095    4097
    4099    4098    4100    4102    4101    4103    4105    4104    4106
    4108    4107    4109    4111    4110    4112    4114    4113    4115
    4117    4116    4118    4120    4119    4121    4123    4122    4124
    4126    4125    4127    4129    4128    4130    4132    4131    4133
    4135    4134    4136    4138    4137    4139    4141    4140    4142
    4144    4143    4145    4147    4146    4148    4150    4149    4151
    4153    4152    4154    4156    4155    4157    4159    4158    4160
    4162    4161    4163    4165    4164    4166    4168    4167    4169
    4171    4170    4172    4174    4173    4175    4177    4176    4178
    4180    4179    4181    4183    4182    4184    4186    4185    4187
    4189    4188    4190    4192    4191    4193    4195    4194    4196
    4198    4197    4199    4201    4200    4202    4204    4203    4205
    4207    4206    4208    4210    4209    4211    4213    4212    4214
    4216    4215    4217    4219    4218    4220    4222    4221    4223
    4225    4224    4226    4228    4227    4229    4231    4230    4232
    4234    4233    4235    4237    4236    4238    4240    4239    4241
    4243    4242    4244    4246    4245    4247    4249    4248    4250
    4252    4251    4253    4255    4254    4256    4258    4257    4259
    4261    4260    4262    4264    4263    4265    4267    4266    4268
    4270    4269    4271    4273    4272    4274    4276    4275    4277
    4279    4278    4280    4282    4281    4283    4285    4284    4286
    4288    4287    4289    4291    4290    4292    4294    4293    4295
    4297    4296    4298    4300    4299    4301    4303    4302    4304
    4306    4305    4307    4309    4308    4310    4312    4311    4313
    4315    4314    4316    4318    4317    4319    4321    4320    4322
    4324    4323    4325    4327    4326    4328    4330    4329    4331
    4333    4332    4334    4336    4335    4337    4339    4338    4340
    4342    4341    4343    4345    4344    4346    4348    4347    4349
    4351    4350    4352    4354    4353    4355    4357    4356    4358
    4360    4359    4361    4363    4362    4364    4366    4365    4367
    4369    4368    4370    4372    4371    4373    4375    4374    4376
    4378    4377    4379    4381    4380    4382    4384    4383    4385
    4387    4386    4388    4390    4389    4391    4393    4392    4394
    4396    4395    4397    4399    4398    4400    4402    4401    4403
    4405    4404    4406    4408    4407    4409    4411    4410    4412
    4414    4413    4415    4417    4416    4418    4420    4419    4421
    4423    4422    4424    4426    4425    4427    4429    4428    4430
    4432    4431    4433    4435    4434    4436    4438    4437    4439
    4441    4440    4442    4444    4443    4445    4447    4446    4448
    4450    4449    4451    4453    4452    4454    4456    4455    4457
    4459    4458    4460    4462    4461    4463    4465    4464    4466
    4468    4467    4469    4471    4470    4472    4474    4473    4475
    4477    4476    4478    4480    4479    4481    4483    4482    4484
    4486    4485    4487    4489    4488    4490    4492    4491    4493
    4495    4494    4496    4498    4497    4499    4501    4500    4502
    4504    4503    4505    4507    4506    4508    4510    4509    4511
    4513    4512    4514    4516    4515    4517    4519    4518    4520
    4522    4521    4523    4525    4524    4526    4528    4527    4529
    4531    4530    4532    4534    4533    4535    4537    4536    4538
    4540    4539    4541    4543    4542    4544    4546    4545    4547
    4549    4548    4550    4552    4551    4553    4555    4554    4556
    4558    4557    4559    4561    4560    4562    4564    4563    4565
    4567    4566    4568    4570    4569    4571    4573    4572    4574
    4576    4575    4577    4579    4578    4580    4582    4581    4583
    4585    4584    4586    4588    4587    4589    4591    4590    4592
    4594    4593    4595    4597    4596    4598    4600    4599    4601
    4603    4602    4604    4606    4605    4607    4609    4608    4610
    4612    4611    4613    4615    4614    4616    4618    4617    4619
    4621    4620    4622    4624    4623    4625    4627    4626    4628
    4630    4629    4631    4633    4632    4634    4636    4635    4637
    4639    4638    4640    4642    4641    4643    4645    4644    4646
    4648    4647    4649    4651    4650    4652    4654    4653    4655
    4657    4656    4658    4660    4659    4661    4663    4662    4664
    4666    4665    4667    4669    4668    4670    4672    4671    4673
    4675    4674    4676    4678    4677    4679    4681    4680    4682
    4684    4683    4685    4687    4686    4688    4690    4689    4691
    4693    4692    4694    4696    4695    4697    4699    4698    4700
    4702    4701    4703    4705    4704    4706    4708    4707    4709
    4711    4710    4712    4714    4713    4715    4717    4716    4718
    4720    4719    4721    4723    4722    4724    4726    4725    4727
    4729    4728    4730    4732    4731    4733    4735    4734    4736
    4738    4737    4739    4741    4740    4742    4744    4743    4745
    4747    4746    4748    4750    4749    4751    4753    4752    4754
    4756    4755    4757    4759    4758    4760    4762    4761    4763
    4765    4764    4766    4768    4767    4769    4771    4770    4772
    4774    4773    4775    4777    4776    4778    4780    4779    4781
    4783    4782    4784    4786    4785    4787    4789    4788    4790
    4792    4791    4793    4795    4794    4796    4798    4797    4799
    4801    4800    4802    4804    4803    4805    4807    4806    4808
    4810    4809    4811    4813    4812    4814    4816    4815    4817
    4819    4818    4820    4822    4821    4823    4825    4824    4826
    4828    4827    4829    4831    4830    4832    4834    4833    4835
    4837    4836    4838    4840    4839    4841    4843    4842    4844
    4846    4845    4847    4849    4848    4850    4852    4851    4853
    4855    4854    4856    4858    4857    4859    4861    4860    4862
    4864    4863    4865    4867    4866    4868    4870    4869    4871
    4873    4872    4874    4876    4875    4877    4879    4878    4880
    4882    4881    4883    4885    4884    4886    4888    4887    4889
    4891    4890    4892    4894    4893    4895    4897    4896    4898
    4900    4899    4901    4903    4902    4904    4906    4905    4907
    4909    4908    4910    4912    4911    4913    4915    4914    4916
    4918    4917    4919    4921    4920    4922    4924    4923    4925
    4927    4926    4928    4930    4929    4931    4933    4932    4934
    4936    4935    4937    4939    4938    4940    4942    4941    4943
    4945    4944    4946    4948    4947    4949    4951    4950    4952
    4954    4953    4955    4957    4956    4958    4960    4959    4961
    4963    4962    4964    4966    4965    4967    4969    4968    4970
    4972    4971    4973    4975    4974    4976    4978    4977    4979
    4981    4980    4982    4984    4983    4985    4987    4986    4988
    4990    4989    4991    4993    4992    4994    4996    4995    4997
    4999    4998    5000    5002    5001    5003    5005    5004    5006
    5008    5007    5009    5011    5010    5012    5014    5013    5015
    5017    5016    5018    5020    5019    5021    5023    5022    5024
    5026    5025    5027    5029    5028    5030    5032    5031    5033
    5035    5034    5036    5038    5037    5039    5041    5040    5042
    5044    5043    5045    5047    5046    5048    5050    5049    5051
    5053    5052    5054    5056    5055    5057    5059    5058    5060
    5062    5061    5063    5065    5064    5066    5068    5067    5069
    5071    5070    5072    5074    5073    5075    5077    5076    5078
    5080    5079    5081    5083    5082    5084    5086    5085    5087
    5089    5088    5090    5092    5091    5093    5095    5094    5096
    5098    5097    5099    5101    5100    5102    5104    5103    5105
    5107    5106    5108    5110    5109    5111    5113    5112    5114
    5116    5115    5117    5119    5118    5120    5122    5121    5123
    5125    5124    5126    5128    5127    5129    5131    5130    5132
    5134    5133    5135    5137    5136    5138    5140    5139    5141
    5143    5142    5144    5146    5145    5147    5149    5148    5150
    5152    5151    5153    5155    5154    5156    5158    5157    5159
    5161    5160    5162    5164    5163    5165    5167    5166    5168
    5170    5169    5171    5173    5172    5174    5176    5175    5177
    5179    5178    5180    5182    5181    5183    5185    5184    5186
    5188    5187    5189    5191    5190    5192    5194    5193    5195
    5197    5196    5198    5200    5199    5201    5203    5202    5204
    5206    5205    5207    5209    5208    5210    5212    5211    5213
    5215    5214    5216    5218    5217    5219    5221    5220    5222
    5224    5223    5225    5227    5226    5228    5230    5229    5231
    5233    5232    5234    5236    5235    5237    5239    5238    5240
    5242    5241    5243    5245    5244    5246    5248    5247    5249
    5251    5250    5252    5254    5253    5255    5257    5256    5258
    5260    5259    5261    5263    5262    5264    5266    5265    5267
    5269    5268    5270    5272    5271    5273    5275    5274    5276
    5278    5277    5279    5281    5280    5282    5284    5283    5285
    5287    5286    5288    5290    5289    5291    5293    5292    5294
    5296    5295    5297    5299    5298    5300    5302    5301    5303
    5305    5304    5306    5308    5307    5309    5311    5310    5312
    5314    5313    5315    5317    5316    5318    5320    5319    5321
    5323    5322    5324    5326    5325    5327    5329    5328    5330
    5332    5331    5333    5335    5334    5336    5338    5337    5339
    5341    5340    5342    5344    5343    5345    5347    5346    5348
    5350    5349    5351    5353    5352    5354    5356    5355    5357
    5359    5358    5360    5362    5361    5363    5365    5364    5366
    5368    5367    5369    5371    5370    5372    5374    5373    5375
    5377    5376    5378    5380    5379    5381    5383    5382    5384
    5386    5385    5387    5389    5388    5390    5392    5391    5393
    5395    5394    5396    5398    5397    5399    5401    5400    5402
    5404    5403    5405    5407    5406    5408    5410    5409    5411
    5413    5412    5414    5416    5415    5417    5419    5418    5420
    5422    5421    5423    5425    5424    5426    5428    5427    5429
    5431    5430    5432    5434    5433    5435    5437    5436    5438
    5440    5439    5441    5443    5442    5444    5446    5445    5447
    5449    5448    5450    5452    5451    5453    5455    5454    5456
    5458    5457    5459    5461    5460    5462    5464    5463    5465
    5467    5466    5468    5470    5469    5471    5473    5472    5474
    5476    5475    5477    5479    5478    5480    5482    5481    5483
    5485    5484    5486    5488    5487    5489    5491    5490    5492
    5494    5493    5495    5497    5496    5498    5500    5499    5501
    5503    5502    5504    5506    5505    5507    5509    5508    5510
    5512    5511    5513    5515    5514    5516    5518    5517    5519
    5521    5520    5522    5524    5523    5525    5527    5526    5528
    5530    5529    5531    5533    5532    5534    5536    5535    5537
    5539    5538    5540    5542    5541    5543    5545    5544    5546
    5548    5547    5549    5551    5550    5552    5554    5553    5555
    5557    5556    5558    5560    5559    5561    5563    5562    5564
    5566    5565    5567    5569    5568    5570    5572    5571    5573
    5575    5574    5576    5578    5577    5579    5581    5580    5582
    5584    5583    5585    5587    5586    5588    5590    5589    5591
    5593    5592    5594    5596    5595    5597    5599    5598    5600
    5602    5601    5603    5605    5604    5606    5608    5607    5609
    5611    5610    5612    5614    5613    5615    5617    5616    5618
    5620    5619    5621    5623    5622    5624    5626    5625    5627
    5629    5628    5630    5632    5631    5633    5635    5634    5636
    5638    5637    5639    5641    5640    5642    5644    5643    5645
    5647    5646    5648    5650    5649    5651    5653    5652    5654
    5656    5655    5657    5659    5658    5660    5662    5661    5663
    5665    5664    5666    5668    5667    5669    5671    5670    5672
    5674    5673    5675    5677    5676    5678    5680    5679    5681
    5683    5682    5684    5686    5685    5687    5689    5688    5690
    5692    5691    5693    5695    5694    5696    5698    5697    5699
    5701    5700    5702    5704    5703    5705    5707    5706    5708
    5710    5709    5711    5713    5712    5714    5716    5715    5717
    5719    5718    5720    5722    5721    5723    5725    5724    5726
    5728    5727    5729    5731    5730    5732    5734    5733    5735
    5737    5736    5738    5740    5739    5741    5743    5742    5744
    5746    5745    5747    5749    5748    5750    5752    5751    5753
    5755    5754    5756    5758    5757    5759    5761    5760    5762
    5764    5763    5765    5767    5766    5768    5770    5769    5771
    5773    5772    5774    5776    5775    5777    5779    5778    5780
    5782    5781    5783    5785    5784    5786    5788    5787    5789
    5791    5790    5792    5794    5793    5795    5797    5796    5798
    5800    5799    5801    5803    5802    5804    5806    5805    5807
    5809    5808    5810    5812    5811    5813    5815    5814    5816
    5818    5817    5819    5821    5820    5822    5824    5823    5825
    5827    5826    5828    5830    5829    5831    5833    5832    5834
    5836    5835    5837    5839    5838    5840    5842    5841    5843
    5845    5844    5846    5848    5847    5849    5851    5850    5852
    5854    5853    5855    5857    5856    5858    5860    5859    5861
    5863    5862    5864    5866    5865    5867    5869    5868    5870
    5872    5871    5873    5875    5874    5876    5878    5877    5879
    5881    5880    5882    5884    5883    5885    5887    5886    5888
    5890    5889    5891    5893    5892    5894    5896    5895    5897
    5899    5898    5900    5902    5901    5903    5905    5904    5906
    5908    5907    5909    5911    5910    5912    5914    5913    5915
    5917    5916    5918    5920    5919    5921    5923    5922    5924
    5926    5925    5927    5929    5928    5930    5932    5931    5933
    5935    5934    5936    5938    5937    5939    5941    5940    5942
    5944    5943    5945    5947    5946    5948    5950    5949    5951
    5953    5952    5954    5956    5955    5957    5959    5958    5960
    5962    5961    5963    5965    5964    5966    5968    5967    5969
    5971    5970    5972    5974    5973    5975    5977    5976    5978
    5980    5979    5981    5983    5982    5984    5986    5985    5987
    5989    5988    5990    5992    5991    5993    5995    5994    5996
    5998    5997    5999    6001    6000    6002    6004    6003    6005
    6007    6006    6008    6010    6009    6011    6013    6012    6014
    6016    6015    6017    6019    6018    6020    6022    6021    6023
    6025    6024    6026    6028    6027    6029    6031    6030    6032
    6034    6033    6035    6037    6036    6038    6040    6039    6041
    6043    6042    6044    6046    6045    6047    6049    6048    6050
    6052    6051    6053    6055    6054    6056    6058    6057    6059
    6061    6060    6062    6064    6063    6065    6067    6066    6068
    6070    6069    6071    6073    6072    6074    6076    6075    6077
    6079    6078    6080    6082    6081    6083    6085    6084    6086
    6088    6087    6089    6091    6090    6092    6094    6093    6095
    6097    6096    6098    6100    6099    6101    6103    6102    6104
    6106    6105    6107    6109    6108    6110    6112    6111    6113
    6115    6114    6116    6118    6117    6119    6121    6120    6122
    6124    6123    6125    6127    6126    6128    6130    6129    6131
    6133    6132    6134    6136    6135    6137    6139    6138    6140
    6142    6141    6143    6145    6144    6146    6148    6147    6149
    6151    6150    6152    6154    6153    6155    6157    6156    6158
    6160    6159    6161    6163    6162    6164    6166    6165    6167
    6169    6168    6170    6172    6171    6173    6175    6174    6176
    6178    6177    6179    6181    6180    6182    6184    6183    6185
    6187    6186    6188    6190    6189    6191    6193    6192    6194
    6196    6195    6197    6199    6198    6200    6202    6201    6203
    6205    6204    6206    6208    6207    6209    6211    6210    6212
    6214    6213    6215    6217    6216    6218    6220    6219    6221
    6223    6222    6224    6226    6225    6227    6229    6228    6230
    6232    6231    6233    6235    6234    6236    6238    6237    6239
    6241    6240    6242    6244    6243    6245    6247    6246    6248
    6250    6249    6251    6253    6252    6254    6256    6255    6257
    6259    6258    6260    6262    6261    6263    6265    6264    6266
    6268    6267    6269    6271    6270    6272    6274    6273    6275
    6277    6276    6278    6280    6279    6281    6283    6282    6284
    6286    6285    6287    6289    6288    6290    6292    6291    6293
    6295    6294    6296    6298    6297    6299    6301    6300    6302
    6304    6303    6305    6307    6306    6308    6310    6309    6311
    6313    6312    6314    6316    6315    6317    6319    6318    6320
    6322    6321    6323    6325    6324    6326    6328    6327    6329
    6331    6330    6332    6334    6333    6335    6337    6336    6338
    6340    6339    6341    6343    6342    6344    6346    6345    6347
    6349    6348    6350    6352    6351    6353    6355    6354    6356
    6358    6357    6359    6361    6360    6362    6364    6363    6365
    6367    6366    6368    6370    6369    6371    6373    6372    6374
    6376    6375    6377    6379    6378    6380    6382    6381    6383
    6385    6384    6386    6388    6387    6389    6391    6390    6392
    6394    6393    6395    6397    6396    6398    6400    6399    6401
    6403    6402    6404    6406    6405    6407    6409    6408    6410
    6412    6411    6413    6415    6414    6416    6418    6417    6419
    6421    6420    6422    6424    6423    6425    6427    6426    6428
    6430    6429    6431    6433    6432    6434    6436    6435    6437
    6439    6438    6440    6442    6441    6443    6445    6444    6446
    6448    6447    6449    6451    6450    6452    6454    6453    6455
    6457    6456    6458    6460    6459    6461    6463    6462    6464
    6466    6465    6467    6469    6468    6470    6472    6471    6473
    6475    6474    6476    6478    6477    6479    6481    6480    6482
    6484    6483    6485    6487    6486    6488    6490    6489    6491
    6493    6492    6494    6496    6495    6497    6499    6498    6500
    6502    6501    6503    6505    6504    6506    6508    6507    6509
    6511    6510    6512    6514    6513    6515    6517    6516    6518
    6520    6519    6521    6523    6522    6524    6526    6525    6527
    6529    6528    6530    6532    6531    6533    6535    6534    6536
    6538    6537    6539    6541    6540    6542    6544    6543    6545
    6547    6546    6548    6550    6549    6551    6553    6552    6554
    6556    6555    6557    6559    6558    6560    6562    6561    6563
    6565    6564    6566    6568    6567    6569    6571    6570    6572
    6574    6573    6575    6577    6576    6578    6580    6579    6581
    6583    6582    6584    6586    6585    6587    6589    6588    6590
    6592    6591    6593    6595    6594    6596    6598    6597    6599
    6601    6600    6602    6604    6603    6605    6607    6606    6608
    6610    6609    6611    6613    6612    6614    6616    6615    6617
    6619    6618    6620    6622    6621    6623    6625    6624    6626
    6628    6627    6629    6631    6630    6632    6634    6633    6635
    6637    6636    6638    6640    6639    6641    6643    6642    6644
    6646    6645    6647    6649    6648    6650    6652    6651    6653
    6655    6654    6656    6658    6657    6659    6661    6660    6662
    6664    6663    6665    6667    6666    6668    6670    6669    6671
    6673    6672    6674    6676    6675    6677    6679    6678    6680
    6682    6681    6683    6685    6684    6686    6688    6687    6689
    6691    6690    6692    6694    6693    6695    6697    6696    6698
    6700    6699    6701    6703    6702    6704    6706    6705    6707
    6709    6708    6710    6712    6711    6713    6715    6714    6716
    6718    6717    6719    6721    6720    6722    6724    6723    6725
    6727    6726    6728    6730    6729    6731    6733    6732    6734
    6736    6735    6737    6739    6738    6740    6742    6741    6743
    6745    6744    6746    6748    6747    6749    6751    6750    6752
    6754    6753    6755    6757    6756    6758    6760    6759    6761
    6763    6762    6764    6766    6765    6767    6769    6768    6770
    6772    6771    6773    6775    6774    6776    6778    6777    6779
    6781    6780    6782    6784    6783    6785    6787    6786    6788
    6790    6789    6791    6793    6792    6794    6796    6795    6797
    6799    6798    6800    6802    6801    6803    6805    6804    6806
    6808    6807    6809    6811    6810    6812    6814    6813    6815
    6817    6816    6818    6820    6819    6821    6823    6822    6824
    6826    6825    6827    6829    6828    6830    6832    6831    6833
    6835    6834    6836    6838    6837    6839    6841    6840    6842
    6844    6843    6845    6847    6846    6848    6850    6849    6851
    6853    6852    6854    6856    6855    6857    6859    6858    6860
    6862    6861    6863    6865    6864    6866    6868    6867    6869
    6871    6870    6872    6874    6873    6875    6877    6876    6878
    6880    6879    6881    6883    6882    6884    6886    6885    6887
    6889    6888    6890    6892    6891    6893    6895    6894    6896
    6898    6897    6899    6901    6900    6902    6904    6903    6905
    6907    6906    6908    6910    6909    6911    6913    6912    6914
    6916    6915    6917    6919    6918    6920    6922    6921    6923
    6925    6924    6926    6928    6927    6929    6931    6930    6932
    6934    6933    6935    6937    6936    6938    6940    6939    6941
    6943    6942    6944    6946    6945    6947    6949    6948    6950
    6952    6951    6953    6955    6954    6956    6958    6957    6959
    6961    6960    6962    6964    6963    6965    6967    6966    6968
    6970    6969    6971    6973    6972    6974    6976    6975    6977
    6979    6978    6980    6982    6981    6983    6985    6984    6986
    6988    6987    6989    6991    6990    6992    6994    6993    6995
    6997    6996    6998    7000    6999    7001    7003    7002    7004
    7006    7005    7007    7009    7008    7010    7012    7011    7013
    7015    7014    7016    7018    7017    7019    7021    7020    7022
    7024    7023    7025    7027    7026    7028    7030    7029    7031
    7033    7032    7034    7036    7035    7037    7039    7038    7040
    7042    7041    7043    7045    7044    7046    7048    7047    7049
    7051    7050    7052    7054    7053    7055    7057    7056    7058
    7060    7059    7061    7063    7062    7064    7066    7065    7067
    7069    7068    7070    7072    7071    7073    7075    7074    7076
    7078    7077    7079    7081    7080    7082    7084    7083    7085
    7087    7086    7088    7090    7089    7091    7093    7092    7094
    7096    7095    7097    7099    7098    7100    7102    7101    7103
    7105    7104    7106    7108    7107    7109    7111    7110    7112
    7114    7113    7115    7117    7116    7118    7120    7119    7121
    7123    7122    7124    7126    7125    7127    7129    7128    7130
    7132    7131    7133    7135    7134    7136    7138    7137    7139
    7141    7140    7142    7144    7143    7145    7147    7146    7148
    7150    7149    7151    7153    7152    7154    7156    7155    7157
    7159    7158    7160    7162    7161    7163    7165    7164    7166
    7168    7167    7169    7171    7170    7172    7174    7173    7175
    7177    7176    7178    7180    7179    7181    7183    7182    7184
    7186    7185    7187    7189    7188    7190    7192    7191    7193
    7195    7194    7196    7198    7197    7199    7201    7200    7202
    7204    7203    7205    7207    7206    7208    7210    7209    7211
    7213    7212    7214    7216    7215    7217    7219    7218    7220
    7222    7221    7223    7225    7224    7226    7228    7227    7229
    7231    7230    7232    7234    7233    7235    7237    7236    7238
    7240    7239    7241    7243    7242    7244    7246    7245    7247
    7249    7248    7250    7252    7251    7253    7255    7254    7256
    7258    7257    7259    7261    7260    7262    7264    7263    7265
    7267    7266    7268    7270    7269    7271    7273    7272    7274
    7276    7275    7277    7279    7278    7280    7282    7281    7283
    7285    7284    7286    7288    7287    7289    7291    7290    7292
    7294    7293    7295    7297    7296    7298    7300    7299    7301
    7303    7302    7304    7306    7305    7307    7309    7308    7310
    7312    7311    7313    7315    7314    7316    7318    7317    7319
    7321    7320    7322    7324    7323    7325    7327    7326    7328
    7330    7329    7331    7333    7332    7334    7336    7335    7337
    7339    7338    7340    7342    7341    7343    7345    7344    7346
    7348    7347    7349    7351    7350    7352    7354    7353    7355
    7357    7356    7358    7360    7359    7361    7363    7362    7364
    7366    7365    7367    7369    7368    7370    7372    7371    7373
    7375    7374    7376    7378    7377    7379    7381    7380    7382
    7384    7383    7385    7387    7386    7388    7390    7389    7391
    7393    7392    7394    7396    7395    7397    7399    7398    7400
    7402    7401    7403    7405    7404    7406    7408    7407    7409
    7411    7410    7412    7414    7413    7415    7417    7416    7418
    7420    7419    7421    7423    7422    7424    7426    7425    7427
    7429    7428    7430    7432    7431    7433    7435    7434    7436
    7438    7437    7439    7441    7440    7442    7444    7443    7445
    7447    7446    7448    7450    7449    7451    7453    7452    7454
    7456    7455    7457    7459    7458    7460    7462    7461    7463
    7465    7464    7466    7468    7467    7469    7471    7470    7472
    7474    7473    7475    7477    7476    7478    7480    7479    7481
    7483    7482    7484    7486    7485    7487    7489    7488    7490
    7492    7491    7493    7495    7494    7496    7498    7497    7499
    7501    7500    7502    7504    7503    7505    7507    7506    7508
    7510    7509    7511    7513    7512    7514    7516    7515    7517
    7519    7518    7520    7522    7521    7523    7525    7524    7526
    7528    7527    7529    7531    7530    7532    7534    7533    7535
    7537    7536    7538    7540    7539    7541    7543    7542    7544
    7546    7545    7547    7549    7548    7550    7552    7551    7553
    7555    7554    7556    7558    7557    7559    7561    7560    7562
    7564    7563    7565    7567    7566    7568    7570    7569    7571
    7573    7572    7574    7576    7575    7577    7579    7578    7580
    7582    7581    7583    7585    7584    7586    7588    7587    7589
    7591    7590    7592    7594    7593    7595    7597    7596    7598
    7600    7599    7601    7603    7602    7604    7606    7605    7607
    7609    7608    7610    7612    7611    7613    7615    7614    7616
    7618    7617    7619    7621    7620    7622    7624    7623    7625
    7627    7626    7628    7630    7629    7631    7633    7632    7634
    7636    7635    7637    7639    7638    7640    7642    7641    7643
    7645    7644    7646    7648    7647    7649    7651    7650    7652
    7654    7653    7655    7657    7656    7658    7660    7659    7661
    7663    7662    7664    7666    7665    7667    7669    7668    7670
    7672    7671    7673    7675    7674    7676    7678    7677    7679
    7681    7680    7682    7684    7683    7685    7687    7686    7688
    7690    7689    7691    7693    7692    7694    7696    7695    7697
    7699    7698    7700    7702    7701    7703    7705    7704    7706
    7708    7707    7709    7711    7710    7712    7714    7713    7715
    7717    7716    7718    7720    7719    7721    7723    7722    7724
    7726    7725    7727    7729    7728    7730    7732    7731    7733
    7735    7734    7736    7738    7737    7739    7741    7740    7742
    7744    7743    7745    7747    7746    7748    7750    7749    7751
    7753    7752    7754    7756    7755    7757    7759    7758    7760
    7762    7761    7763    7765    7764    7766    7768    7767    7769
    7771    7770    7772    7774    7773    7775    7777    7776    7778
    7780    7779    7781    7783    7782    7784    7786    7785    7787
    7789    7788    7790    7792    7791    7793    7795    7794    7796
    7798    7797    7799    7801    7800    7802    7804    7803    7805
    7807    7806    7808    7810    7809    7811    7813    7812    7814
    7816    7815    7817    7819    7818    7820    7822    7821    7823
    7825    7824    7826    7828    7827    7829    7831    7830    7832
    7834    7833    7835    7837    7836    7838    7840    7839    7841
    7843    7842    7844    7846    7845    7847    7849    7848    7850
    7852    7851    7853    7855    7854    7856    7858    7857    7859
    7861    7860    7862    7864    7863    7865    7867    7866    7868
    7870    7869    7871    7873    7872    7874    7876    7875    7877
    7879    7878    7880    7882    7881    7883    7885    7884    7886
    7888    7887    7889    7891    7890    7892    7894    7893    7895
    7897    7896    7898    7900    7899    7901    7903    7902    7904
    7906    7905    7907    7909    7908    7910    7912    7911    7913
    7915    7914    7916    7918    7917    7919    7921    7920    7922
    7924    7923    7925    7927    7926    7928    7930    7929    7931
    7933    7932    7934    7936    7935    7937    7939    7938    7940
    7942    7941    7943    7945    7944    7946    7948    7947    7949
    7951    7950    7952    7954    7953    7955    7957    7956    7958
    7960    7959    7961    7963    7962    7964    7966    7965    7967
    7969    7968    7970    7972    7971    7973    7975    7974    7976
    7978    7977    7979    7981    7980    7982    7984    7983    7985
    7987    7986    7988    7990    7989    7991    7993    7992    7994
    7996    7995    7997    7999    7998    8000    8002    8001    8003
    8005    8004    8006    8008    8007    8009    8011    8010    8012
    8014    8013    8015    8017    8016    8018    8020    8019    8021
    8023    8022    8024    8026    8025    8027    8029    8028    8030
    8032    8031    8033    8035    8034    8036    8038    8037    8039
    8041    8040    8042    8044    8043    8045    8047    8046    8048
    8050    8049    8051    8053    8052    8054    8056    8055    8057
    8059    8058    8060    8062    8061    8063    8065    8064    8066
    8068    8067    8069    8071    8070    8072    8074    8073    8075
    8077    8076    8078    8080    8079    8081    8083    8082    8084
    8086    8085    8087    8089    8088    8090    8092    8091    8093
    8095    8094    8096    8098    8097    8099    8101    8100    8102
    8104    8103    8105    8107    8106    8108    8110    8109    8111
    8113    8112    8114    8116    8115    8117    8119    8118    8120
    8122    8121    8123    8125    8124    8126    8128    8127    8129
    8131    8130    8132    8134    8133    8135    8137    8136    8138
    8140    8139    8141    8143    8142    8144    8146    8145    8147
    8149    8148    8150    8152    8151    8153    8155    8154    8156
    8158    8157    8159    8161    8160    8162    8164    8163    8165
    8167    8166    8168    8170    8169    8171    8173    8172    8174
    8176    8175    8177    8179    8178    8180    8182    8181    8183
    8185    8184    8186    8188    8187    8189    8191    8190    8192
    8194    8193    8195    8197    8196    8198    8200    8199    8201
    8203    8202    8204    8206    8205    8207    8209    8208    8210
    8212    8211    8213    8215    8214    8216    8218    8217    8219
    8221    8220    8222    8224    8223    8225    8227    8226    8228
    8230    8229    8231    8233    8232    8234    8236    8235    8237
    8239    8238    8240    8242    8241    8243    8245    8244    8246
    8248    8247    8249    8251    8250    8252    8254    8253    8255
    8257    8256    8258    8260    8259    8261    8263    8262    8264
    8266    8265    8267    8269    8268    8270    8272    8271    8273
    8275    8274    8276    8278    8277    8279    8281    8280    8282
    8284    8283    8285    8287    8286    8288    8290    8289    8291
    8293    8292    8294    8296    8295    8297    8299    8298    8300
    8302    8301    8303    8305    8304    8306    8308    8307    8309
    8311    8310    8312    8314    8313    8315    8317    8316    8318
    8320    8319    8321    8323    8322    8324    8326    8325    8327
    8329    8328    8330    8332    8331    8333    8335    8334    8336
    8338    8337    8339    8341    8340    8342    8344    8343    8345
    8347    8346    8348    8350    8349    8351    8353    8352    8354
    8356    8355    8357    8359    8358    8360    8362    8361    8363
    8365    8364    8366    8368    8367    8369    8371    8370    8372
    8374    8373    8375    8377    8376    8378    8380    8379    8381
    8383    8382    8384    8386    8385    8387    8389    8388    8390
    8392    8391    8393    8395    8394    8396    8398    8397    8399
    8401    8400    8402    8404    8403    8405    8407    8406    8408
    8410    8409    8411    8413    8412    8414    8416    8415    8417
    8419    8418    8420    8422    8421    8423    8425    8424    8426
    8428    8427    8429    8431    8430    8432    8434    8433    8435
    8437    8436    8438    8440    8439    8441    8443    8442    8444
    8446    8445    8447    8449    8448    8450    8452    8451    8453
    8455    8454    8456    8458    8457    8459    8461    8460    8462
    8464    8463    8465    8467    8466    8468    8470    8469    8471
    8473    8472    8474    8476    8475    8477    8479    8478    8480
    8482    8481    8483    8485    8484    8486    8488    8487    8489
    8491    8490    8492    8494    8493    8495    8497    8496    8498
    8500    8499    8501    8503    8502    8504    8506    8505    8507
    8509    8508    8510    8512    8511    8513    8515    8514    8516
    8518    8517    8519    8521    8520    8522    8524    8523    8525
    8527    8526    8528    8530    8529    8531    8533    8532    8534
    8536    8535    8537    8539    8538    8540    8542    8541    8543
    8545    8544    8546    8548    8547    8549    8551    8550    8552
    8554    8553    8555    8557    8556    8558    8560    8559    8561
    8563    8562    8564    8566    8565    8567    8569    8568    8570
    8572    8571    8573    8575    8574    8576    8578    8577    8579
    8581    8580    8582    8584    8583    8585    8587    8586    8588
    8590    8589    8591    8593    8592    8594    8596    8595    8597
    8599    8598    8600    8602    8601    8603    8605    8604    8606
    8608    8607    8609    8611    8610    8612    8614    8613    8615
    8617    8616    8618    8620    8619    8621    8623    8622    8624
    8626    8625    8627    8629    8628    8630    8632    8631    8633
    8635    8634    8636    8638    8637    8639    8641    8640    8642
    8644    8643    8645    8647    8646    8648    8650    8649    8651
    8653    8652    8654    8656    8655    8657    8659    8658    8660
    8662    8661    8663    8665    8664    8666    8668    8667    8669
    8671    8670    8672    8674    8673    8675    8677    8676    8678
    8680    8679    8681    8683    8682    8684    8686    8685    8687
    8689    8688    8690    8692    8691    8693    8695    8694    8696
    8698    8697    8699    8701    8700    8702    8704    8703    8705
    8707    8706    8708    8710    8709    8711    8713    8712    8714
    8716    8715    8717    8719    8718    8720    8722    8721    8723
    8725    8724    8726    8728    8727    8729    8731    8730    8732
    8734    8733    8735    8737    8736    8738    8740    8739    8741
    8743    8742    8744    8746    8745    8747    8749    8748    8750
    8752    8751    8753    8755    8754    8756    8758    8757    8759
    8761    8760    8762    8764    8763    8765    8767    8766    8768
    8770    8769    8771    8773    8772    8774    8776    8775    8777
    8779    8778    8780    8782    8781    8783    8785    8784    8786
    8788    8787    8789    8791    8790    8792    8794    8793    8795
    8797    8796    8798    8800    8799    8801    8803    8802    8804
    8806    8805    8807    8809    8808    8810    8812    8811    8813
    8815    8814    8816    8818    8817    8819    8821    8820    8822
    8824    8823    8825    8827    8826    8828    8830    8829    8831
    8833    8832    8834    8836    8835    8837    8839    8838    8840
    8842    8841    8843    8845    8844    8846    8848    8847    8849
    8851    8850    8852    8854    8853    8855    8857    8856    8858
    8860    8859    8861    8863    8862    8864    8866    8865    8867
    8869    8868    8870    8872    8871    8873    8875    8874    8876
    8878    8877    8879    8881    8880    8882    8884    8883    8885
    8887    8886    8888    8890    8889    8891    8893    8892    8894
    8896    8895    8897    8899    8898    8900    8902    8901    8903
    8905    8904    8906    8908    8907    8909    8911    8910    8912
    8914    8913    8915    8917    8916    8918    8920    8919    8921
    8923    8922    8924    8926    8925    8927    8929    8928    8930
    8932    8931    8933    8935    8934    8936    8938    8937    8939
    8941    8940    8942    8944    8943    8945    8947    8946    8948
    8950    8949    8951    8953    8952    8954    8956    8955    8957
    8959    8958    8960    8962    8961    8963    8965    8964    8966
    8968    8967    8969    8971    8970    8972    8974    8973    8975
    8977    8976    8978    8980    8979    8981    8983    8982    8984
    8986    8985    8987    8989    8988    8990    8992    8991    8993
    8995    8994    8996    8998    8997    8999    9001    9000    9002
    9004    9003    9005    9007    9006    9008    9010    9009    9011
    9013    9012    9014    9016    9015    9017    9019    9018    9020
    9022    9021    9023    9025    9024    9026    9028    9027    9029
    9031    9030    9032    9034    9033    9035    9037    9036    9038
    9040    9039    9041    9043    9042    9044    9046    9045    9047
    9049    9048    9050    9052    9051    9053    9055    9054    9056
    9058    9057    9059    9061    9060    9062    9064    9063    9065
    9067    9066    9068    9070    9069    9071    9073    9072    9074
    9076    9075    9077    9079    9078    9080    9082    9081    9083
    9085    9084    9086    9088    9087    9089    9091    9090    9092
    9094    9093    9095    9097    9096    9098    9100    9099    9101
    9103    9102    9104    9106    9105    9107    9109    9108    9110
    9112    9111    9113    9115    9114    9116    9118    9117    9119
    9121    9120    9122    9124    9123    9125    9127    9126    9128
    9130    9129    9131    9133    9132    9134    9136    9135    9137
    9139    9138    9140    9142    9141    9143    9145    9144    9146
    9148    9147    9149    9151    9150    9152    9154    9153    9155
    9157    9156    9158    9160    9159    9161    9163    9162    9164
    9166    9165    9167    9169    9168    9170    9172    9171    9173
    9175    9174    9176    9178    9177    9179    9181    9180    9182
    9184    9183    9185    9187    9186    9188    9190    9189    9191
    9193    9192    9194    9196    9195    9197    9199    9198    9200
    9202    9201    9203    9205    9204    9206    9208    9207    9209
    9211    9210    9212    9214    9213    9215    9217    9216    9218
    9220    9219    9221    9223    9222    9224    9226    9225    9227
    9229    9228    9230    9232    9231    9233    9235    9234    9236
    9238    9237    9239    9241    9240    9242    9244    9243    9245
    9247    9246    9248    9250    9249    9251    9253    9252    9254
    9256    9255    9257    9259    9258    9260    9262    9261    9263
    9265    9264    9266    9268    9267    9269    9271    9270    9272
    9274    9273    9275    9277    9276    9278    9280    9279    9281
    9283    9282    9284    9286    9285    9287    9289    9288    9290
    9292    9291    9293    9295    9294    9296    9298    9297    9299
    9301    9300    9302    9304    9303    9305    9307    9306    9308
    9310    9309    9311    9313    9312    9314    9316    9315    9317
    9319    9318    9320    9322    9321    9323    9325    9324    9326
    9328    9327    9329    9331    9330    9332    9334    9333    9335
    9337    9336    9338    9340    9339    9341    9343    9342    9344
    9346    9345    9347    9349    9348    9350    9352    9351    9353
    9355    9354    9356    9358    9357    9359    9361    9360    9362
    9364    9363    9365    9367    9366    9368    9370    9369    9371
    9373    9372    9374    9376    9375    9377    9379    9378    9380
    9382    9381    9383    9385    9384    9386    9388    9387    9389
    9391    9390    9392    9394    9393    9395    9397    9396    9398
    9400    9399    9401    9403    9402    9404    9406    9405    9407
    9409    9408    9410    9412    9411    9413    9415    9414    9416
    9418    9417    9419    9421    9420    9422    9424    9423    9425
    9427    9426    9428    9430    9429    9431    9433    9432    9434
    9436    9435    9437    9439    9438    9440    9442    9441    9443
    9445    9444    9446    9448    9447    9449    9451    9450    9452
    9454    9453    9455    9457    9456    9458    9460    9459    9461
    9463    9462    9464    9466    9465    9467    9469    9468    9470
    9472    9471    9473    9475    9474    9476    9478    9477    9479
    9481    9480    9482    9484    9483    9485    9487    9486    9488
    9490    9489    9491    9493    9492    9494    9496    9495    9497
    9499    9498    9500    9502    9501    9503    9505    9504    9506
    9508    9507    9509    9511    9510    9512    9514    9513    9515
    9517    9516    9518    9520    9519    9521    9523    9522    9524
    9526    9525    9527    9529    9528    9530    9532    9531    9533
    9535    9534    9536    9538    9537    9539    9541    9540    9542
    9544    9543    9545    9547    9546    9548    9550    9549    9551
    9553    9552    9554    9556    9555    9557    9559    9558    9560
    9562    9561    9563    9565    9564    9566    9568    9567    9569
    9571    9570    9572    9574    9573    9575    9577    9576    9578
    9580    9579    9581    9583    9582    9584    9586    9585    9587
    9589    9588    9590    9592    9591    9593    9595    9594    9596
    9598    9597    9599    9601    9600    9602    9604    9603    9605
    9607    9606    9608    9610    9609    9611    9613    9612    9614
    9616    9615    9617    9619    9618    9620    9622    9621    9623
    9625    9624    9626    9628    9627    9629    9631    9630    9632
    9634    9633    9635    9637    9636    9638    9640    9639    9641
    9643    9642    9644    9646    9645    9647    9649    9648    9650
    9652    9651    9653    9655    9654    9656    9658    9657    9659
    9661    9660    9662    9664    9663    9665    9667    9666    9668
    9670    9669    9671    9673    9672    9674    9676    9675    9677
    9679    9678    9680    9682    9681    9683    9685    9684    9686
    9688    9687    9689    9691    9690    9692    9694    9693    9695
    9697    9696    9698    9700    9699    9701    9703    9702    9704
    9706    9705    9707    9709    9708    9710    9712    9711    9713
    9715    9714    9716    9718    9717    9719    9721    9720    9722
    9724    9723    9725    9727    9726    9728    9730    9729    9731
    9733    9732    9734    9736    9735    9737    9739    9738    9740
    9742    9741    9743    9745    9744    9746    9748    9747    9749
    9751    9750    9752    9754    9753    9755    9757    9756    9758
    9760    9759    9761    9763    9762    9764    9766    9765    9767
    9769    9768    9770    9772    9771    9773    9775    9774    9776
    9778    9777    9779    9781    9780    9782    9784    9783    9785
    9787    9786    9788    9790    9789    9791    9793    9792    9794
    9796    9795    9797    9799    9798    9800    9802    9801    9803
    9805    9804    9806    9808    9807    9809    9811    9810    9812
    9814    9813    9815    9817    9816    9818    9820    9819    9821
    9823    9822    9824    9826    9825    9827    9829    9828    9830
    9832    9831    9833    9835    9834    9836    9838    9837    9839
    9841    9840    9842    9844    9843    9845    9847    9846    9848
    9850    9849    9851    9853    9852    9854    9856    9855    9857
    9859    9858    9860    9862    9861    9863    9865    9864    9866
    9868    9867    9869    9871    9870    9872    9874    9873    9875
    9877    9876    9878    9880    9879    9881    9883    9882    9884
    9886    9885    9887    9889    9888    9890    9892    9891    9893
    9895    9894    9896    9898    9897    9899    9901    9900    9902
    9904    9903    9905    9907    9906    9908    9910    9909    9911
    9913    9912    9914    9916    9915    9917    9919    9918    9920
    9922    9921    9923    9925    9924    9926    9928    9927    9929
    9931    9930    9932    9934    9933    9935    9937    9936    9938
    9940    9939    9941    9943    9942    9944    9946    9945    9947
    9949    9948    9950    9952    9951    9953    9955    9954    9956
    9958    9957    9959    9961    9960    9962    9964    9963    9965
    9967    9966    9968    9970    9969    9971    9973    9972    9974
    9976    9975    9977    9979    9978    9980    9982    9981    9983
    9985    9984    9986    9988    9987    9989    9991    9990    9992
    9994    9993    9995    9997    9996    9998   10000    9999   10001
   10003   10002   10004   10006   10005   10007   10009   10008   10010
   10012   10011   10013   10015   10014   10016   10018   10017   10019
   10021   10020   10022   10024   10023   10025   10027   10026   10028
   10030   10029   10031   10033   10032   10034   10036   10035   10037
   10039   10038   10040   10042   10041   10043   10045   10044   10046
   10048   10047   10049   10051   10050   10052   10054   10053   10055
   10057   10056   10058   10060   10059   10061   10063   10062   10064
   10066   10065   10067   10069   10068   10070   10072   10071   10073
   10075   10074   10076   10078   10077   10079   10081   10080   10082
   10084   10083   10085   10087   10086   10088   10090   10089   10091
   10093   10092   10094   10096   10095   10097   10099   10098   10100
   10102   10101   10103   10105   10104   10106   10108   10107   10109
   10111   10110   10112   10114   10113   10115   10117   10116   10118
   10120   10119   10121   10123   10122   10124   10126   10125   10127
   10129   10128   10130   10132   10131   10133   10135   10134   10136
   10138   10137   10139   10141   10140   10142   10144   10143   10145
   10147   10146   10148   10150   10149   10151   10153   10152   10154
   10156   10155   10157   10159   10158   10160   10162   10161   10163
   10165   10164   10166   10168   10167   10169   10171   10170   10172
   10174   10173   10175   10177   10176   10178   10180   10179   10181
   10183   10182   10184   10186   10185   10187   10189   10188   10190
   10192   10191   10193   10195   10194   10196   10198   10197   10199
   10201   10200   10202   10204   10203   10205   10207   10206   10208
   10210   10209   10211   10213   10212   10214   10216   10215   10217
   10219   10218   10220   10222   10221   10223   10225   10224   10226
   10228   10227   10229   10231   10230   10232   10234   10233   10235
   10237   10236   10238   10240   10239   10241   10243   10242   10244
   10246   10245   10247   10249   10248   10250   10252   10251   10253
   10255   10254   10256   10258   10257   10259   10261   10260   10262
   10264   10263   10265   10267   10266   10268   10270   10269   10271
   10273   10272   10274   10276   10275   10277   10279   10278   10280
   10282   10281   10283   10285   10284   10286   10288   10287   10289
   10291   10290   10292   10294   10293   10295   10297   10296   10298
   10300   10299   10301   10303   10302   10304   10306   10305   10307
   10309   10308   10310   10312   10311   10313   10315   10314   10316
   10318   10317   10319   10321   10320   10322   10324   10323   10325
   10327   10326   10328   10330   10329   10331   10333   10332   10334
   10336   10335   10337   10339   10338   10340   10342   10341   10343
   10345   10344   10346   10348   10347   10349   10351   10350   10352
   10354   10353   10355   10357   10356   10358   10360   10359   10361
   10363   10362   10364   10366   10365   10367   10369   10368   10370
   10372   10371   10373   10375   10374   10376   10378   10377   10379
   10381   10380   10382   10384   10383   10385   10387   10386   10388
   10390   10389   10391   10393   10392   10394   10396   10395   10397
   10399   10398   10400   10402   10401   10403   10405   10404   10406
   10408   10407   10409   10411   10410   10412   10414   10413   10415
   10417   10416   10418   10420   10419   10421   10423   10422   10424
   10426   10425   10427   10429   10428   10430   10432   10431   10433
   10435   10434   10436   10438   10437   10439   10441   10440   10442
   10444   10443   10445   10447   10446   10448   10450   10449   10451
   10453   10452   10454   10456   10455   10457   10459   10458   10460
   10462   10461   10463   10465   10464   10466   10468   10467   10469
   10471   10470   10472   10474   10473   10475   10477   10476   10478
   10480   10479   10481   10483   10482   10484   10486   10485   10487
   10489   10488   10490   10492   10491   10493   10495   10494   10496
   10498   10497   10499   10501   10500   10502   10504   10503   10505
   10507   10506   10508   10510   10509   10511   10513   10512   10514
   10516   10515   10517   10519   10518   10520   10522   10521   10523
   10525   10524   10526   10528   10527   10529   10531   10530   10532
   10534   10533   10535   10537   10536   10538   10540   10539   10541
   10543   10542   10544   10546   10545   10547   10549   10548   10550
   10552   10551   10553   10555   10554   10556   10558   10557   10559
   10561   10560   10562   10564   10563   10565   10567   10566   10568
   10570   10569   10571   10573   10572   10574   10576   10575   10577
   10579   10578   10580   10582   10581   10583   10585   10584   10586
   10588   10587   10589   10591   10590   10592   10594   10593   10595
   10597   10596   10598   10600   10599   10601   10603   10602   10604
   10606   10605   10607   10609   10608   10610   10612   10611   10613
   10615   10614   10616   10618   10617   10619   10621   10620   10622
   10624   10623   10625   10627   10626   10628   10630   10629   10631
   10633   10632   10634   10636   10635   10637   10639   10638   10640
   10642   10641   10643   10645   10644   10646   10648   10647   10649
   10651   10650   10652   10654   10653   10655   10657   10656   10658
   10660   10659   10661   10663   10662   10664   10666   10665   10667
   10669   10668   10670   10672   10671   10673   10675   10674   10676
   10678   10677   10679   10681   10680   10682   10684   10683   10685
   10687   10686   10688   10690   10689   10691   10693   10692   10694
   10696   10695   10697   10699   10698   10700   10702   10701   10703
   10705   10704   10706   10708   10707   10709   10711   10710   10712
   10714   10713   10715   10717   10716   10718   10720   10719   10721
   10723   10722   10724   10726   10725   10727   10729   10728   10730
   10732   10731   10733   10735   10734   10736   10738   10737   10739
   10741   10740   10742   10744   10743   10745   10747   10746   10748
   10750   10749   10751   10753   10752   10754   10756   10755   10757
   10759   10758   10760   10762   10761   10763   10765   10764   10766
   10768   10767   10769   10771   10770   10772   10774   10773   10775
   10777   10776   10778   10780   10779   10781   10783   10782   10784
   10786   10785   10787   10789   10788   10790   10792   10791   10793
   10795   10794   10796   10798   10797   10799   10801   10800   10802
   10804   10803   10805   10807   10806   10808   10810   10809   10811
   10813   10812   10814   10816   10815   10817   10819   10818   10820
   10822   10821   10823   10825   10824   10826   10828   10827   10829
   10831   10830   10832   10834   10833   10835   10837   10836   10838
   10840   10839   10841   10843   10842   10844   10846   10845   10847
   10849   10848   10850   10852   10851   10853   10855   10854   10856
   10858   10857   10859   10861   10860   10862   10864   10863   10865
   10867   10866   10868   10870   10869   10871   10873   10872   10874
   10876   10875   10877   10879   10878   10880   10882   10881   10883
   10885   10884   10886   10888   10887   10889   10891   10890   10892
   10894   10893   10895   10897   10896   10898   10900   10899   10901
   10903   10902   10904   10906   10905   10907   10909   10908   10910
   10912   10911   10913   10915   10914   10916   10918   10917   10919
   10921   10920   10922   10924   10923   10925   10927   10926   10928
   10930   10929   10931   10933   10932   10934   10936   10935   10937
   10939   10938   10940   10942   10941   10943   10945   10944   10946
   10948   10947   10949   10951   10950   10952   10954   10953   10955
   10957   10956   10958   10960   10959   10961   10963   10962   10964
   10966   10965   10967   10969   10968   10970   10972   10971   10973
   10975   10974   10976   10978   10977   10979   10981   10980   10982
   10984   10983   10985   10987   10986   10988   10990   10989   10991
   10993   10992   10994   10996   10995   10997   10999   10998   11000
   11002   11001   11003   11005   11004   11006   11008   11007   11009
   11011   11010   11012   11014   11013   11015   11017   11016   11018
   11020   11019   11021   11023   11022   11024   11026   11025   11027
   11029   11028   11030   11032   11031   11033   11035   11034   11036
   11038   11037   11039   11041   11040   11042   11044   11043   11045
   11047   11046   11048   11050   11049   11051   11053   11052   11054
   11056   11055   11057   11059   11058   11060   11062   11061   11063
   11065   11064   11066   11068   11067   11069   11071   11070   11072
   11074   11073   11075   11077   11076   11078   11080   11079   11081
   11083   11082   11084   11086   11085   11087   11089   11088   11090
   11092   11091   11093   11095   11094   11096   11098   11097   11099
   11101   11100   11102   11104   11103   11105   11107   11106   11108
   11110   11109   11111   11113   11112   11114   11116   11115   11117
   11119   11118   11120   11122   11121   11123   11125   11124   11126
   11128   11127   11129   11131   11130   11132   11134   11133   11135
   11137   11136   11138   11140   11139   11141   11143   11142   11144
   11146   11145   11147   11149   11148   11150   11152   11151   11153
   11155   11154   11156   11158   11157   11159   11161   11160   11162
   11164   11163   11165   11167   11166   11168   11170   11169   11171
   11173   11172   11174   11176   11175   11177   11179   11178   11180
   11182   11181   11183   11185   11184   11186   11188   11187   11189
   11191   11190   11192   11194   11193   11195   11197   11196   11198
   11200   11199   11201   11203   11202   11204   11206   11205   11207
   11209   11208   11210   11212   11211   11213   11215   11214   11216
   11218   11217   11219   11221   11220   11222   11224   11223   11225
   11227   11226   11228   11230   11229   11231   11233   11232   11234
   11236   11235   11237   11239   11238   11240   11242   11241   11243
   11245   11244   11246   11248   11247   11249   11251   11250   11252
   11254   11253   11255   11257   11256   11258   11260   11259   11261
   11263   11262   11264   11266   11265   11267   11269   11268   11270
   11272   11271   11273   11275   11274   11276   11278   11277   11279
   11281   11280   11282   11284   11283   11285   11287   11286   11288
   11290   11289   11291   11293   11292   11294   11296   11295   11297
   11299   11298   11300   11302   11301   11303   11305   11304   11306
   11308   11307   11309   11311   11310   11312   11314   11313   11315
   11317   11316   11318   11320   11319   11321   11323   11322   11324
   11326   11325   11327   11329   11328   11330   11332   11331   11333
   11335   11334   11336   11338   11337   11339   11341   11340   11342
   11344   11343   11345   11347   11346   11348   11350   11349   11351
   11353   11352   11354   11356   11355   11357   11359   11358   11360
   11362   11361   11363   11365   11364   11366   11368   11367   11369
   11371   11370   11372   11374   11373   11375   11377   11376   11378
   11380   11379   11381   11383   11382   11384   11386   11385   11387
   11389   11388   11390   11392   11391   11393   11395   11394   11396
   11398   11397   11399   11401   11400   11402   11404   11403   11405
   11407   11406   11408   11410   11409   11411   11413   11412   11414
   11416   11415   11417   11419   11418   11420   11422   11421   11423
   11425   11424   11426   11428   11427   11429   11431   11430   11432
   11434   11433   11435   11437   11436   11438   11440   11439   11441
   11443   11442   11444   11446   11445   11447   11449   11448   11450
   11452   11451   11453   11455   11454   11456   11458   11457   11459
   11461   11460   11462   11464   11463   11465   11467   11466   11468
   11470   11469   11471   11473   11472   11474   11476   11475   11477
   11479   11478   11480   11482   11481   11483   11485   11484   11486
   11488   11487   11489   11491   11490   11492   11494   11493   11495
   11497   11496   11498   11500   11499   11501   11503   11502   11504
   11506   11505   11507   11509   11508   11510   11512   11511   11513
   11515   11514   11516   11518   11517   11519   11521   11520   11522
   11524   11523   11525   11527   11526   11528   11530   11529   11531
   11533   11532   11534   11536   11535   11537   11539   11538   11540
   11542   11541   11543   11545   11544   11546   11548   11547   11549
   11551   11550   11552   11554   11553   11555   11557   11556   11558
   11560   11559   11561   11563   11562   11564   11566   11565   11567
   11569   11568   11570   11572   11571   11573   11575   11574   11576
   11578   11577   11579   11581   11580   11582   11584   11583   11585
   11587   11586   11588   11590   11589   11591   11593   11592   11594
   11596   11595   11597   11599   11598   11600   11602   11601   11603
   11605   11604   11606   11608   11607   11609   11611   11610   11612
   11614   11613   11615   11617   11616   11618   11620   11619   11621
   11623   11622   11624   11626   11625   11627   11629   11628   11630
   11632   11631   11633   11635   11634   11636   11638   11637   11639
   11641   11640   11642   11644   11643   11645   11647   11646   11648
   11650   11649   11651   11653   11652   11654   11656   11655   11657
   11659   11658   11660   11662   11661   11663   11665   11664   11666
   11668   11667   11669   11671   11670   11672   11674   11673   11675
   11677   11676   11678   11680   11679   11681   11683   11682   11684
   11686   11685   11687   11689   11688   11690   11692   11691   11693
   11695   11694   11696   11698   11697   11699   11701   11700   11702
   11704   11703   11705   11707   11706   11708   11710   11709   11711
   11713   11712   11714   11716   11715   11717   11719   11718   11720
   11722   11721   11723   11725   11724   11726   11728   11727   11729
   11731   11730   11732   11734   11733   11735   11737   11736   11738
   11740   11739   11741   11743   11742   11744   11746   11745   11747
   11749   11748   11750   11752   11751   11753   11755   11754   11756
   11758   11757   11759   11761   11760   11762   11764   11763   11765
   11767   11766   11768   11770   11769   11771   11773   11772   11774
   11776   11775   11777   11779   11778   11780   11782   11781   11783
   11785   11784   11786   11788   11787   11789   11791   11790   11792
   11794   11793   11795   11797   11796   11798   11800   11799   11801
   11803   11802   11804   11806   11805   11807   11809   11808   11810
   11812   11811   11813   11815   11814   11816   11818   11817   11819
   11821   11820   11822   11824   11823   11825   11827   11826   11828
   11830   11829   11831   11833   11832   11834   11836   11835   11837
   11839   11838   11840   11842   11841   11843   11845   11844   11846
   11848   11847   11849   11851   11850   11852   11854   11853   11855
   11857   11856   11858   11860   11859   11861   11863   11862   11864
   11866   11865   11867   11869   11868   11870   11872   11871   11873
   11875   11874   11876   11878   11877   11879   11881   11880   11882
   11884   11883   11885   11887   11886   11888   11890   11889   11891
   11893   11892   11894   11896   11895   11897   11899   11898   11900
   11902   11901   11903   11905   11904   11906   11908   11907   11909
   11911   11910   11912   11914   11913   11915   11917   11916   11918
   11920   11919   11921   11923   11922   11924   11926   11925   11927
   11929   11928   11930   11932   11931   11933   11935   11934   11936
   11938   11937   11939   11941   11940   11942   11944   11943   11945
   11947   11946   11948   11950   11949   11951   11953   11952   11954
   11956   11955   11957   11959   11958   11960   11962   11961   11963
   11965   11964   11966   11968   11967   11969   11971   11970   11972
   11974   11973   11975   11977   11976   11978   11980   11979   11981
   11983   11982   11984   11986   11985   11987   11989   11988   11990
   11992   11991   11993   11995   11994   11996   11998   11997   11999
   12001   12000   12002   12004   12003   12005   12007   12006   12008
   12010   12009   12011   12013   12012   12014   12016   12015   12017
   12019   12018   12020   12022   12021   12023   12025   12024   12026
   12028   12027   12029   12031   12030   12032   12034   12033   12035
   12037   12036   12038   12040   12039   12041   12043   12042   12044
   12046   12045   12047   12049   12048   12050   12052   12051   12053
   12055   12054   12056   12058   12057   12059   12061   12060   12062
   12064   12063   12065   12067   12066   12068   12070   12069   12071
   12073   12072   12074   12076   12075   12077   12079   12078   12080
   12082   12081   12083   12085   12084   12086   12088   12087   12089
   12091   12090   12092   12094   12093   12095   12097   12096   12098
   12100   12099   12101   12103   12102   12104   12106   12105   12107
   12109   12108   12110   12112   12111   12113   12115   12114   12116
   12118   12117   12119   12121   12120   12122   12124   12123   12125
   12127   12126   12128   12130   12129   12131   12133   12132   12134
   12136   12135   12137   12139   12138   12140   12142   12141   12143
   12145   12144   12146   12148   12147   12149   12151   12150   12152
   12154   12153   12155   12157   12156   12158   12160   12159   12161
   12163   12162   12164   12166   12165   12167   12169   12168   12170
   12172   12171   12173   12175   12174   12176   12178   12177   12179
   12181   12180   12182   12184   12183   12185   12187   12186   12188
   12190   12189   12191   12193   12192   12194   12196   12195   12197
   12199   12198   12200   12202   12201   12203   12205   12204   12206
   12208   12207   12209   12211   12210   12212   12214   12213   12215
   12217   12216   12218   12220   12219   12221   12223   12222   12224
   12226   12225   12227   12229   12228   12230   12232   12231   12233
   12235   12234   12236   12238   12237   12239   12241   12240   12242
   12244   12243   12245   12247   12246   12248   12250   12249   12251
   12253   12252   12254   12256   12255   12257   12259   12258   12260
   12262   12261   12263   12265   12264   12266   12268   12267   12269
   12271   12270   12272   12274   12273   12275   12277   12276   12278
   12280   12279   12281   12283   12282   12284   12286   12285   12287
   12289   12288   12290   12292   12291   12293   12295   12294   12296
   12298   12297   12299   12301   12300   12302   12304   12303   12305
   12307   12306   12308   12310   12309   12311   12313   12312   12314
   12316   12315   12317   12319   12318   12320   12322   12321   12323
   12325   12324   12326   12328   12327   12329   12331   12330   12332
   12334   12333   12335   12337   12336   12338   12340   12339   12341
   12343   12342   12344   12346   12345   12347   12349   12348   12350
   12352   12351   12353   12355   12354   12356   12358   12357   12359
   12361   12360   12362   12364   12363   12365   12367   12366   12368
   12370   12369   12371   12373   12372   12374   12376   12375   12377
   12379   12378   12380   12382   12381   12383   12385   12384   12386
   12388   12387   12389   12391   12390   12392   12394   12393   12395
   12397   12396   12398   12400   12399   12401   12403   12402   12404
   12406   12405   12407   12409   12408   12410   12412   12411   12413
   12415   12414   12416   12418   12417   12419   12421   12420   12422
   12424   12423   12425   12427   12426   12428   12430   12429   12431
   12433   12432   12434   12436   12435   12437   12439   12438   12440
   12442   12441   12443   12445   12444   12446   12448   12447   12449
   12451   12450   12452   12454   12453   12455   12457   12456   12458
   12460   12459   12461   12463   12462   12464   12466   12465   12467
   12469   12468   12470   12472   12471   12473   12475   12474   12476
   12478   12477   12479   12481   12480   12482   12484   12483   12485
   12487   12486   12488   12490   12489   12491   12493   12492   12494
   12496   12495   12497   12499   12498   12500   12502   12501   12503
   12505   12504   12506   12508   12507   12509   12511   12510   12512
   12514   12513   12515   12517   12516   12518   12520   12519   12521
   12523   12522   12524   12526   12525   12527   12529   12528   12530
   12532   12531   12533   12535   12534   12536   12538   12537   12539
   12541   12540   12542   12544   12543   12545   12547   12546   12548
   12550   12549   12551   12553   12552   12554   12556   12555   12557
   12559   12558   12560   12562   12561   12563   12565   12564   12566
   12568   12567   12569   12571   12570   12572   12574   12573   12575
   12577   12576   12578   12580   12579   12581   12583   12582   12584
   12586   12585   12587   12589   12588   12590   12592   12591   12593
   12595   12594   12596   12598   12597   12599   12601   12600   12602
   12604   12603   12605   12607   12606   12608   12610   12609   12611
   12613   12612   12614   12616   12615   12617   12619   12618   12620
   12622   12621   12623   12625   12624   12626   12628   12627   12629
   12631   12630   12632   12634   12633   12635   12637   12636   12638
   12640   12639   12641   12643   12642   12644   12646   12645   12647
   12649   12648   12650   12652   12651   12653   12655   12654   12656
   12658   12657   12659   12661   12660   12662   12664   12663   12665
   12667   12666   12668   12670   12669   12671   12673   12672   12674
   12676   12675   12677   12679   12678   12680   12682   12681   12683
   12685   12684   12686   12688   12687   12689   12691   12690   12692
   12694   12693   12695   12697   12696   12698   12700   12699   12701
   12703   12702   12704   12706   12705   12707   12709   12708   12710
   12712   12711   12713   12715   12714   12716   12718   12717   12719
   12721   12720   12722   12724   12723   12725   12727   12726   12728
   12730   12729   12731   12733   12732   12734   12736   12735   12737
   12739   12738   12740   12742   12741   12743   12745   12744   12746
   12748   12747   12749   12751   12750   12752   12754   12753   12755
   12757   12756   12758   12760   12759   12761   12763   12762   12764
   12766   12765   12767   12769   12768   12770   12772   12771   12773
   12775   12774   12776   12778   12777   12779   12781   12780   12782
   12784   12783   12785   12787   12786   12788   12790   12789   12791
   12793   12792   12794   12796   12795   12797   12799   12798   12800
   12802   12801   12803   12805   12804   12806   12808   12807   12809
   12811   12810   12812   12814   12813   12815   12817   12816   12818
   12820   12819   12821   12823   12822   12824   12826   12825   12827
   12829   12828   12830   12832   12831   12833   12835   12834   12836
   12838   12837   12839   12841   12840   12842   12844   12843   12845
   12847   12846   12848   12850   12849   12851   12853   12852   12854
   12856   12855   12857   12859   12858   12860   12862   12861   12863
   12865   12864   12866   12868   12867   12869   12871   12870   12872
   12874   12873   12875   12877   12876   12878   12880   12879   12881
   12883   12882   12884   12886   12885   12887   12889   12888   12890
   12892   12891   12893   12895   12894   12896   12898   12897   12899
   12901   12900   12902   12904   12903   12905   12907   12906   12908
   12910   12909   12911   12913   12912   12914   12916   12915   12917
   12919   12918   12920   12922   12921   12923   12925   12924   12926
   12928   12927   12929   12931   12930   12932   12934   12933   12935
   12937   12936   12938   12940   12939   12941   12943   12942   12944
   12946   12945   12947   12949   12948   12950   12952   12951   12953
   12955   12954   12956   12958   12957   12959   12961   12960   12962
   12964   12963   12965   12967   12966   12968   12970   12969   12971
   12973   12972   12974   12976   12975   12977   12979   12978   12980
   12982   12981   12983   12985   12984   12986   12988   12987   12989
   12991   12990   12992   12994   12993   12995   12997   12996   12998
   13000   12999   13001   13003   13002   13004   13006   13005   13007
   13009   13008   13010   13012   13011   13013   13015   13014   13016
   13018   13017   13019   13021   13020   13022   13024   13023   13025
   13027   13026   13028   13030   13029   13031   13033   13032   13034
   13036   13035   13037   13039   13038   13040   13042   13041   13043
   13045   13044   13046   13048   13047   13049   13051   13050   13052
   13054   13053   13055   13057   13056   13058   13060   13059   13061
   13063   13062   13064   13066   13065   13067   13069   13068   13070
   13072   13071   13073   13075   13074   13076   13078   13077   13079
   13081   13080   13082   13084   13083   13085   13087   13086   13088
   13090   13089   13091   13093   13092   13094   13096   13095   13097
   13099   13098   13100   13102   13101   13103   13105   13104   13106
   13108   13107   13109   13111   13110   13112   13114   13113   13115
   13117   13116   13118   13120   13119   13121   13123   13122   13124
   13126   13125   13127   13129   13128   13130   13132   13131   13133
   13135   13134   13136   13138   13137   13139   13141   13140   13142
   13144   13143   13145   13147   13146   13148   13150   13149   13151
   13153   13152   13154   13156   13155   13157   13159   13158   13160
   13162   13161   13163   13165   13164   13166   13168   13167   13169
   13171   13170   13172   13174   13173   13175   13177   13176   13178
   13180   13179   13181   13183   13182   13184   13186   13185   13187
   13189   13188   13190   13192   13191   13193   13195   13194   13196
   13198   13197   13199   13201   13200   13202   13204   13203   13205
   13207   13206   13208   13210   13209   13211   13213   13212   13214
   13216   13215   13217   13219   13218   13220   13222   13221   13223
   13225   13224   13226   13228   13227   13229   13231   13230   13232
   13234   13233   13235   13237   13236   13238   13240   13239   13241
   13243   13242   13244   13246   13245   13247   13249   13248   13250
   13252   13251   13253   13255   13254   13256   13258   13257   13259
   13261   13260   13262   13264   13263   13265   13267   13266   13268
   13270   13269   13271   13273   13272   13274   13276   13275   13277
   13279   13278   13280   13282   13281   13283   13285   13284   13286
   13288   13287   13289   13291   13290   13292   13294   13293   13295
   13297   13296   13298   13300   13299   13301   13303   13302   13304
   13306   13305   13307   13309   13308   13310   13312   13311   13313
   13315   13314   13316   13318   13317   13319   13321   13320   13322
   13324   13323   13325   13327   13326   13328   13330   13329   13331
   13333   13332   13334   13336   13335   13337   13339   13338   13340
   13342   13341   13343   13345   13344   13346   13348   13347   13349
   13351   13350   13352   13354   13353   13355   13357   13356   13358
   13360   13359   13361   13363   13362   13364   13366   13365   13367
   13369   13368   13370   13372   13371   13373   13375   13374   13376
   13378   13377   13379   13381   13380   13382   13384   13383   13385
   13387   13386   13388   13390   13389   13391   13393   13392   13394
   13396   13395   13397   13399   13398   13400   13402   13401   13403
   13405   13404   13406   13408   13407   13409   13411   13410   13412
   13414   13413   13415   13417   13416   13418   13420   13419   13421
   13423   13422   13424   13426   13425   13427   13429   13428   13430
   13432   13431   13433   13435   13434   13436   13438   13437   13439
   13441   13440   13442   13444   13443   13445   13447   13446   13448
   13450   13449   13451   13453   13452   13454   13456   13455   13457
   13459   13458   13460   13462   13461   13463   13465   13464   13466
   13468   13467   13469   13471   13470   13472   13474   13473   13475
   13477   13476   13478   13480   13479   13481   13483   13482   13484
   13486   13485   13487   13489   13488   13490   13492   13491   13493
   13495   13494   13496   13498   13497   13499   13501   13500   13502
   13504   13503   13505   13507   13506   13508   13510   13509   13511
   13513   13512   13514   13516   13515   13517   13519   13518   13520
   13522   13521   13523   13525   13524   13526   13528   13527   13529
   13531   13530   13532   13534   13533   13535   13537   13536   13538
   13540   13539   13541   13543   13542   13544   13546   13545   13547
   13549   13548   13550   13552   13551   13553   13555   13554   13556
   13558   13557   13559   13561   13560   13562   13564   13563   13565
   13567   13566   13568   13570   13569   13571   13573   13572   13574
   13576   13575   13577   13579   13578   13580   13582   13581   13583
   13585   13584   13586   13588   13587   13589   13591   13590   13592
   13594   13593   13595   13597   13596   13598   13600   13599   13601
   13603   13602   13604   13606   13605   13607   13609   13608   13610
   13612   13611   13613   13615   13614   13616   13618   13617   13619
   13621   13620   13622   13624   13623   13625   13627   13626   13628
   13630   13629   13631   13633   13632   13634   13636   13635   13637
   13639   13638   13640   13642   13641   13643   13645   13644   13646
   13648   13647   13649   13651   13650   13652   13654   13653   13655
   13657   13656   13658   13660   13659   13661   13663   13662   13664
   13666   13665   13667   13669   13668   13670   13672   13671   13673
   13675   13674   13676   13678   13677   13679   13681   13680   13682
   13684   13683   13685   13687   13686   13688   13690   13689   13691
   13693   13692   13694   13696   13695   13697   13699   13698   13700
   13702   13701   13703   13705   13704   13706   13708   13707   13709
   13711   13710   13712   13714   13713   13715   13717   13716   13718
   13720   13719   13721   13723   13722   13724   13726   13725   13727
   13729   13728   13730   13732   13731   13733   13735   13734   13736
   13738   13737   13739   13741   13740   13742   13744   13743   13745
   13747   13746   13748   13750   13749   13751   13753   13752   13754
   13756   13755   13757   13759   13758   13760   13762   13761   13763
   13765   13764   13766   13768   13767   13769   13771   13770   13772
   13774   13773   13775   13777   13776   13778   13780   13779   13781
   13783   13782   13784   13786   13785   13787   13789   13788   13790
   13792   13791   13793   13795   13794   13796   13798   13797   13799
   13801   13800   13802   13804   13803   13805   13807   13806   13808
   13810   13809   13811   13813   13812   13814   13816   13815   13817
   13819   13818   13820   13822   13821   13823   13825   13824   13826
   13828   13827   13829   13831   13830   13832   13834   13833   13835
   13837   13836   13838   13840   13839   13841   13843   13842   13844
   13846   13845   13847   13849   13848   13850   13852   13851   13853
   13855   13854   13856   13858   13857   13859   13861   13860   13862
   13864   13863   13865   13867   13866   13868   13870   13869   13871
   13873   13872   13874   13876   13875   13877   13879   13878   13880
   13882   13881   13883   13885   13884   13886   13888   13887   13889
   13891   13890   13892   13894   13893   13895   13897   13896   13898
   13900   13899   13901   13903   13902   13904   13906   13905   13907
   13909   13908   13910   13912   13911   13913   13915   13914   13916
   13918   13917   13919   13921   13920   13922   13924   13923   13925
   13927   13926   13928   13930   13929   13931   13933   13932   13934
   13936   13935   13937   13939   13938   13940   13942   13941   13943
   13945   13944   13946   13948   13947   13949   13951   13950   13952
   13954   13953   13955   13957   13956   13958   13960   13959   13961
   13963   13962   13964   13966   13965   13967   13969   13968   13970
   13972   13971   13973   13975   13974   13976   13978   13977   13979
   13981   13980   13982   13984   13983   13985   13987   13986   13988
   13990   13989   13991   13993   13992   13994   13996   13995   13997
   13999   13998   14000   14002   14001   14003   14005   14004   14006
   14008   14007   14009   14011   14010   14012   14014   14013   14015
   14017   14016   14018   14020   14019   14021   14023   14022   14024
   14026   14025   14027   14029   14028   14030   14032   14031   14033
   14035   14034   14036   14038   14037   14039   14041   14040   14042
   14044   14043   14045   14047   14046   14048   14050   14049   14051
   14053   14052   14054   14056   14055   14057   14059   14058   14060
   14062   14061   14063   14065   14064   14066   14068   14067   14069
   14071   14070   14072   14074   14073   14075   14077   14076   14078
   14080   14079   14081   14083   14082   14084   14086   14085   14087
   14089   14088   14090   14092   14091   14093   14095   14094   14096
   14098   14097   14099   14101   14100   14102   14104   14103   14105
   14107   14106   14108   14110   14109   14111   14113   14112   14114
   14116   14115   14117   14119   14118   14120   14122   14121   14123
   14125   14124   14126   14128   14127   14129   14131   14130   14132
   14134   14133   14135   14137   14136   14138   14140   14139   14141
   14143   14142   14144   14146   14145   14147   14149   14148   14150
   14152   14151   14153   14155   14154   14156   14158   14157   14159
   14161   14160   14162   14164   14163   14165   14167   14166   14168
   14170   14169   14171   14173   14172   14174   14176   14175   14177
   14179   14178   14180   14182   14181   14183   14185   14184   14186
   14188   14187   14189   14191   14190   14192   14194   14193   14195
   14197   14196   14198   14200   14199   14201   14203   14202   14204
   14206   14205   14207   14209   14208   14210   14212   14211   14213
   14215   14214   14216   14218   14217   14219   14221   14220   14222
   14224   14223   14225   14227   14226   14228   14230   14229   14231
   14233   14232   14234   14236   14235   14237   14239   14238   14240
   14242   14241   14243   14245   14244   14246   14248   14247   14249
   14251   14250   14252   14254   14253   14255   14257   14256   14258
   14260   14259   14261   14263   14262   14264   14266   14265   14267
   14269   14268   14270   14272   14271   14273   14275   14274   14276
   14278   14277   14279   14281   14280   14282   14284   14283   14285
   14287   14286   14288   14290   14289   14291   14293   14292   14294
   14296   14295   14297   14299   14298   14300   14302   14301   14303
   14305   14304   14306   14308   14307   14309   14311   14310   14312
   14314   14313   14315   14317   14316   14318   14320   14319   14321
   14323   14322   14324   14326   14325   14327   14329   14328   14330
   14332   14331   14333   14335   14334   14336   14338   14337   14339
   14341   14340   14342   14344   14343   14345   14347   14346   14348
   14350   14349   14351   14353   14352   14354   14356   14355   14357
   14359   14358   14360   14362   14361   14363   14365   14364   14366
   14368   14367   14369   14371   14370   14372   14374   14373   14375
   14377   14376   14378   14380   14379   14381   14383   14382   14384
   14386   14385   14387   14389   14388   14390   14392   14391   14393
   14395   14394   14396   14398   14397   14399   14401   14400   14402
   14404   14403   14405   14407   14406   14408   14410   14409   14411
   14413   14412   14414   14416   14415   14417   14419   14418   14420
   14422   14421   14423   14425   14424   14426   14428   14427   14429
   14431   14430   14432   14434   14433   14435   14437   14436   14438
   14440   14439   14441   14443   14442   14444   14446   14445   14447
   14449   14448   14450   14452   14451   14453   14455   14454   14456
   14458   14457   14459   14461   14460   14462   14464   14463   14465
   14467   14466   14468   14470   14469   14471   14473   14472   14474
   14476   14475   14477   14479   14478   14480   14482   14481   14483
   14485   14484   14486   14488   14487   14489   14491   14490   14492
   14494   14493   14495   14497   14496   14498   14500   14499   14501
   14503   14502   14504   14506   14505   14507   14509   14508   14510
   14512   14511   14513   14515   14514   14516   14518   14517   14519
   14521   14520   14522   14524   14523   14525   14527   14526   14528
   14530   14529   14531   14533   14532   14534   14536   14535   14537
   14539   14538   14540   14542   14541   14543   14545   14544   14546
   14548   14547   14549   14551   14550   14552   14554   14553   14555
   14557   14556   14558   14560   14559   14561   14563   14562   14564
   14566   14565   14567   14569   14568   14570   14572   14571   14573
   14575   14574   14576   14578   14577   14579   14581   14580   14582
   14584   14583   14585   14587   14586   14588   14590   14589   14591
   14593   14592   14594   14596   14595   14597   14599   14598   14600
   14602   14601   14603   14605   14604   14606   14608   14607   14609
   14611   14610   14612   14614   14613   14615   14617   14616   14618
   14620   14619   14621   14623   14622   14624   14626   14625   14627
   14629   14628   14630   14632   14631   14633   14635   14634   14636
   14638   14637   14639   14641   14640   14642   14644   14643   14645
   14647   14646   14648   14650   14649   14651   14653   14652   14654
   14656   14655   14657   14659   14658   14660   14662   14661   14663
   14665   14664   14666   14668   14667   14669   14671   14670   14672
   14674   14673   14675   14677   14676   14678   14680   14679   14681
   14683   14682   14684   14686   14685   14687   14689   14688   14690
   14692   14691   14693   14695   14694   14696   14698   14697   14699
   14701   14700   14702   14704   14703   14705   14707   14706   14708
   14710   14709   14711   14713   14712   14714   14716   14715   14717
   14719   14718   14720   14722   14721   14723   14725   14724   14726
   14728   14727   14729   14731   14730   14732   14734   14733   14735
   14737   14736   14738   14740   14739   14741   14743   14742   14744
   14746   14745   14747   14749   14748   14750   14752   14751   14753
   14755   14754   14756   14758   14757   14759   14761   14760   14762
   14764   14763   14765   14767   14766   14768   14770   14769   14771
   14773   14772   14774   14776   14775   14777   14810   14856   14853
   14810   14856   14858   14810   14856   14857   14810   14814   14817
   14810   14814   14816   14810   14814   14815   14810   14812   14813
   14811   14810   14814   14811   14810   14856   14812   14810   14814
   14812   14810   14856   14811   14810   14812   14814   14817   14818
   14814   14817   14848   14815   14814   14817   14815   14814   14816
   14816   14814   14817   14817   14848   14846   14817   14848   14849
   14817   14848   14853   14817   14818   14820   14817   14818   14819
   14818   14820   14823   14818   14820   14822   14818   14820   14821
   14819   14818   14820   14820   14823   14825   14820   14823   14846
   14820   14823   14824   14821   14820   14823   14821   14820   14822
   14822   14820   14823   14823   14846   14843   14823   14846   14848
   14823   14846   14847   14823   14825   14827   14823   14825   14835
   14823   14825   14826   14824   14823   14825   14824   14823   14846
   14825   14835   14833   14825   14835   14836   14825   14835   14840
   14825   14827   14830   14825   14827   14829   14825   14827   14828
   14826   14825   14827   14826   14825   14835   14827   14830   14833
   14827   14830   14832   14827   14830   14831   14828   14827   14830
   14828   14827   14829   14829   14827   14830   14830   14833   14859
   14830   14833   14835   14830   14833   14834   14831   14830   14833
   14831   14830   14832   14832   14830   14833   14833   14859   14865
   14833   14859   14861   14833   14859   14860   14834   14833   14859
   14834   14833   14835   14835   14840   14843   14835   14840   14842
   14835   14840   14841   14835   14836   14839   14835   14836   14838
   14835   14836   14837   14835   14833   14859   14827   14825   14835
   14833   14835   14836   14837   14836   14839   14837   14836   14838
   14838   14836   14839   14840   14843   14846   14840   14843   14845
   14840   14843   14844   14833   14835   14840   14836   14835   14840
   14841   14840   14843   14841   14840   14842   14842   14840   14843
   14844   14843   14846   14844   14843   14845   14845   14843   14846
   14825   14823   14846   14843   14846   14847   14847   14846   14848
   14848   14849   14852   14848   14849   14851   14848   14849   14850
   14843   14846   14848   14818   14817   14848   14846   14848   14849
   14850   14849   14852   14850   14849   14851   14851   14849   14852
   14846   14848   14853   14849   14848   14853   14848   14853   14854
   14854   14853   14855   14848   14853   14855   14848   14853   14856
   14855   14853   14856   14854   14853   14856   14814   14810   14856
   14853   14856   14857   14857   14856   14858   14853   14856   14858
   14859   14865   14868   14859   14865   14867   14859   14865   14866
   14859   14861   14864   14859   14861   14863   14859   14861   14862
   14860   14859   14865   14860   14859   14861   14861   14859   14865
   14862   14861   14864   14862   14861   14863   14863   14861   14864
   14865   14868   14871   14865   14868   14870   14865   14868   14869
   14866   14865   14868   14866   14865   14867   14867   14865   14868
   14868   14871   14874   14868   14871   14873   14868   14871   14872
   14869   14868   14871   14869   14868   14870   14870   14868   14871
   14871   14874   14880   14871   14874   14876   14871   14874   14875
   14872   14871   14874   14872   14871   14873   14873   14871   14874
   14874   14880   14883   14874   14880   14882   14874   14880   14881
   14874   14876   14879   14874   14876   14878   14874   14876   14877
   14875   14874   14880   14875   14874   14876   14876   14874   14880
   14877   14876   14879   14877   14876   14878   14878   14876   14879
   14881   14880   14883   14881   14880   14882   14882   14880   14883
   14884   14930   14927   14884   14930   14932   14884   14930   14931
   14884   14888   14891   14884   14888   14890   14884   14888   14889
   14884   14886   14887   14885   14884   14888   14885   14884   14930
   14886   14884   14888   14886   14884   14930   14885   14884   14886
   14888   14891   14892   14888   14891   14922   14889   14888   14891
   14889   14888   14890   14890   14888   14891   14891   14922   14920
   14891   14922   14923   14891   14922   14927   14891   14892   14894
   14891   14892   14893   14892   14894   14897   14892   14894   14896
   14892   14894   14895   14893   14892   14894   14894   14897   14899
   14894   14897   14920   14894   14897   14898   14895   14894   14897
   14895   14894   14896   14896   14894   14897   14897   14920   14917
   14897   14920   14922   14897   14920   14921   14897   14899   14901
   14897   14899   14909   14897   14899   14900   14898   14897   14899
   14898   14897   14920   14899   14909   14907   14899   14909   14910
   14899   14909   14914   14899   14901   14904   14899   14901   14903
   14899   14901   14902   14900   14899   14901   14900   14899   14909
   14901   14904   14907   14901   14904   14906   14901   14904   14905
   14902   14901   14904   14902   14901   14903   14903   14901   14904
   14904   14907   14933   14904   14907   14909   14904   14907   14908
   14905   14904   14907   14905   14904   14906   14906   14904   14907
   14907   14933   14939   14907   14933   14935   14907   14933   14934
   14908   14907   14933   14908   14907   14909   14909   14914   14917
   14909   14914   14916   14909   14914   14915   14909   14910   14913
   14909   14910   14912   14909   14910   14911   14909   14907   14933
   14901   14899   14909   14907   14909   14910   14911   14910   14913
   14911   14910   14912   14912   14910   14913   14914   14917   14920
   14914   14917   14919   14914   14917   14918   14907   14909   14914
   14910   14909   14914   14915   14914   14917   14915   14914   14916
   14916   14914   14917   14918   14917   14920   14918   14917   14919
   14919   14917   14920   14899   14897   14920   14917   14920   14921
   14921   14920   14922   14922   14923   14926   14922   14923   14925
   14922   14923   14924   14917   14920   14922   14892   14891   14922
   14920   14922   14923   14924   14923   14926   14924   14923   14925
   14925   14923   14926   14920   14922   14927   14923   14922   14927
   14922   14927   14928   14928   14927   14929   14922   14927   14929
   14922   14927   14930   14929   14927   14930   14928   14927   14930
   14888   14884   14930   14927   14930   14931   14931   14930   14932
   14927   14930   14932   14933   14939   14942   14933   14939   14941
   14933   14939   14940   14933   14935   14938   14933   14935   14937
   14933   14935   14936   14934   14933   14939   14934   14933   14935
   14935   14933   14939   14936   14935   14938   14936   14935   14937
   14937   14935   14938   14939   14942   14945   14939   14942   14944
   14939   14942   14943   14940   14939   14942   14940   14939   14941
   14941   14939   14942   14942   14945   14948   14942   14945   14947
   14942   14945   14946   14943   14942   14945   14943   14942   14944
   14944   14942   14945   14945   14948   14954   14945   14948   14950
   14945   14948   14949   14946   14945   14948   14946   14945   14947
   14947   14945   14948   14948   14954   14957   14948   14954   14956
   14948   14954   14955   14948   14950   14953   14948   14950   14952
   14948   14950   14951   14949   14948   14954   14949   14948   14950
   14950   14948   14954   14951   14950   14953   14951   14950   14952
   14952   14950   14953   14955   14954   14957   14955   14954   14956
   14956   14954   14957   14958   15004   15001   14958   15004   15006
   14958   15004   15005   14958   14962   14965   14958   14962   14964
   14958   14962   14963   14958   14960   14961   14959   14958   14962
   14959   14958   15004   14960   14958   14962   14960   14958   15004
   14959   14958   14960   14962   14965   14966   14962   14965   14996
   14963   14962   14965   14963   14962   14964   14964   14962   14965
   14965   14996   14994   14965   14996   14997   14965   14996   15001
   14965   14966   14968   14965   14966   14967   14966   14968   14971
   14966   14968   14970   14966   14968   14969   14967   14966   14968
   14968   14971   14973   14968   14971   14994   14968   14971   14972
   14969   14968   14971   14969   14968   14970   14970   14968   14971
   14971   14994   14991   14971   14994   14996   14971   14994   14995
   14971   14973   14975   14971   14973   14983   14971   14973   14974
   14972   14971   14973   14972   14971   14994   14973   14983   14981
   14973   14983   14984   14973   14983   14988   14973   14975   14978
   14973   14975   14977   14973   14975   14976   14974   14973   14975
   14974   14973   14983   14975   14978   14981   14975   14978   14980
   14975   14978   14979   14976   14975   14978   14976   14975   14977
   14977   14975   14978   14978   14981   15007   14978   14981   14983
   14978   14981   14982   14979   14978   14981   14979   14978   14980
   14980   14978   14981   14981   15007   15013   14981   15007   15009
   14981   15007   15008   14982   14981   15007   14982   14981   14983
   14983   14988   14991   14983   14988   14990   14983   14988   14989
   14983   14984   14987   14983   14984   14986   14983   14984   14985
   14983   14981   15007   14975   14973   14983   14981   14983   14984
   14985   14984   14987   14985   14984   14986   14986   14984   14987
   14988   14991   14994   14988   14991   14993   14988   14991   14992
   14981   14983   14988   14984   14983   14988   14989   14988   14991
   14989   14988   14990   14990   14988   14991   14992   14991   14994
   14992   14991   14993   14993   14991   14994   14973   14971   14994
   14991   14994   14995   14995   14994   14996   14996   14997   15000
   14996   14997   14999   14996   14997   14998   14991   14994   14996
   14966   14965   14996   14994   14996   14997   14998   14997   15000
   14998   14997   14999   14999   14997   15000   14994   14996   15001
   14997   14996   15001   14996   15001   15002   15002   15001   15003
   14996   15001   15003   14996   15001   15004   15003   15001   15004
   15002   15001   15004   14962   14958   15004   15001   15004   15005
   15005   15004   15006   15001   15004   15006   15007   15013   15016
   15007   15013   15015   15007   15013   15014   15007   15009   15012
   15007   15009   15011   15007   15009   15010   15008   15007   15013
   15008   15007   15009   15009   15007   15013   15010   15009   15012
   15010   15009   15011   15011   15009   15012   15013   15016   15019
   15013   15016   15018   15013   15016   15017   15014   15013   15016
   15014   15013   15015   15015   15013   15016   15016   15019   15022
   15016   15019   15021   15016   15019   15020   15017   15016   15019
   15017   15016   15018   15018   15016   15019   15019   15022   15028
   15019   15022   15024   15019   15022   15023   15020   15019   15022
   15020   15019   15021   15021   15019   15022   15022   15028   15031
   15022   15028   15030   15022   15028   15029   15022   15024   15027
   15022   15024   15026   15022   15024   15025   15023   15022   15028
   15023   15022   15024   15024   15022   15028   15025   15024   15027
   15025   15024   15026   15026   15024   15027   15029   15028   15031
   15029   15028   15030   15030   15028   15031   15032   15078   15075
   15032   15078   15080   15032   15078   15079   15032   15036   15039
   15032   15036   15038   15032   15036   15037   15032   15034   15035
   15033   15032   15036   15033   15032   15078   15034   15032   15036
   15034   15032   15078   15033   15032   15034   15036   15039   15040
   15036   15039   15070   15037   15036   15039   15037   15036   15038
   15038   15036   15039   15039   15070   15068   15039   15070   15071
   15039   15070   15075   15039   15040   15042   15039   15040   15041
   15040   15042   15045   15040   15042   15044   15040   15042   15043
   15041   15040   15042   15042   15045   15047   15042   15045   15068
   15042   15045   15046   15043   15042   15045   15043   15042   15044
   15044   15042   15045   15045   15068   15065   15045   15068   15070
   15045   15068   15069   15045   15047   15049   15045   15047   15057
   15045   15047   15048   15046   15045   15047   15046   15045   15068
   15047   15057   15055   15047   15057   15058   15047   15057   15062
   15047   15049   15052   15047   15049   15051   15047   15049   15050
   15048   15047   15049   15048   15047   15057   15049   15052   15055
   15049   15052   15054   15049   15052   15053   15050   15049   15052
   15050   15049   15051   15051   15049   15052   15052   15055   15081
   15052   15055   15057   15052   15055   15056   15053   15052   15055
   15053   15052   15054   15054   15052   15055   15055   15081   15087
   15055   15081   15083   15055   15081   15082   15056   15055   15081
   15056   15055   15057   15057   15062   15065   15057   15062   15064
   15057   15062   15063   15057   15058   15061   15057   15058   15060
   15057   15058   15059   15057   15055   15081   15049   15047   15057
   15055   15057   15058   15059   15058   15061   15059   15058   15060
   15060   15058   15061   15062   15065   15068   15062   15065   15067
   15062   15065   15066   15055   15057   15062   15058   15057   15062
   15063   15062   15065   15063   15062   15064   15064   15062   15065
   15066   15065   15068   15066   15065   15067   15067   15065   15068
   15047   15045   15068   15065   15068   15069   15069   15068   15070
   15070   15071   15074   15070   15071   15073   15070   15071   15072
   15065   15068   15070   15040   15039   15070   15068   15070   15071
   15072   15071   15074   15072   15071   15073   15073   15071   15074
   15068   15070   15075   15071   15070   15075   15070   15075   15076
   15076   15075   15077   15070   15075   15077   15070   15075   15078
   15077   15075   15078   15076   15075   15078   15036   15032   15078
   15075   15078   15079   15079   15078   15080   15075   15078   15080
   15081   15087   15090   15081   15087   15089   15081   15087   15088
   15081   15083   15086   15081   15083   15085   15081   15083   15084
   15082   15081   15087   15082   15081   15083   15083   15081   15087
   15084   15083   15086   15084   15083   15085   15085   15083   15086
   15087   15090   15093   15087   15090   15092   15087   15090   15091
   15088   15087   15090   15088   15087   15089   15089   15087   15090
   15090   15093   15096   15090   15093   15095   15090   15093   15094
   15091   15090   15093   15091   15090   15092   15092   15090   15093
   15093   15096   15102   15093   15096   15098   15093   15096   15097
   15094   15093   15096   15094   15093   15095   15095   15093   15096
   15096   15102   15105   15096   15102   15104   15096   15102   15103
   15096   15098   15101   15096   15098   15100   15096   15098   15099
   15097   15096   15102   15097   15096   15098   15098   15096   15102
   15099   15098   15101   15099   15098   15100   15100   15098   15101
   15103   15102   15105   15103   15102   15104   15104   15102   15105
   15106   15152   15149   15106   15152   15154   15106   15152   15153
   15106   15110   15113   15106   15110   15112   15106   15110   15111
   15106   15108   15109   15107   15106   15110   15107   15106   15152
   15108   15106   15110   15108   15106   15152   15107   15106   15108
   15110   15113   15114   15110   15113   15144   15111   15110   15113
   15111   15110   15112   15112   15110   15113   15113   15144   15142
   15113   15144   15145   15113   15144   15149   15113   15114   15116
   15113   15114   15115   15114   15116   15119   15114   15116   15118
   15114   15116   15117   15115   15114   15116   15116   15119   15121
   15116   15119   15142   15116   15119   15120   15117   15116   15119
   15117   15116   15118   15118   15116   15119   15119   15142   15139
   15119   15142   15144   15119   15142   15143   15119   15121   15123
   15119   15121   15131   15119   15121   15122   15120   15119   15121
   15120   15119   15142   15121   15131   15129   15121   15131   15132
   15121   15131   15136   15121   15123   15126   15121   15123   15125
   15121   15123   15124   15122   15121   15123   15122   15121   15131
   15123   15126   15129   15123   15126   15128   15123   15126   15127
   15124   15123   15126   15124   15123   15125   15125   15123   15126
   15126   15129   15155   15126   15129   15131   15126   15129   15130
   15127   15126   15129   15127   15126   15128   15128   15126   15129
   15129   15155   15161   15129   15155   15157   15129   15155   15156
   15130   15129   15155   15130   15129   15131   15131   15136   15139
   15131   15136   15138   15131   15136   15137   15131   15132   15135
   15131   15132   15134   15131   15132   15133   15131   15129   15155
   15123   15121   15131   15129   15131   15132   15133   15132   15135
   15133   15132   15134   15134   15132   15135   15136   15139   15142
   15136   15139   15141   15136   15139   15140   15129   15131   15136
   15132   15131   15136   15137   15136   15139   15137   15136   15138
   15138   15136   15139   15140   15139   15142   15140   15139   15141
   15141   15139   15142   15121   15119   15142   15139   15142   15143
   15143   15142   15144   15144   15145   15148   15144   15145   15147
   15144   15145   15146   15139   15142   15144   15114   15113   15144
   15142   15144   15145   15146   15145   15148   15146   15145   15147
   15147   15145   15148   15142   15144   15149   15145   15144   15149
   15144   15149   15150   15150   15149   15151   15144   15149   15151
   15144   15149   15152   15151   15149   15152   15150   15149   15152
   15110   15106   15152   15149   15152   15153   15153   15152   15154
   15149   15152   15154   15155   15161   15164   15155   15161   15163
   15155   15161   15162   15155   15157   15160   15155   15157   15159
   15155   15157   15158   15156   15155   15161   15156   15155   15157
   15157   15155   15161   15158   15157   15160   15158   15157   15159
   15159   15157   15160   15161   15164   15167   15161   15164   15166
   15161   15164   15165   15162   15161   15164   15162   15161   15163
   15163   15161   15164   15164   15167   15170   15164   15167   15169
   15164   15167   15168   15165   15164   15167   15165   15164   15166
   15166   15164   15167   15167   15170   15176   15167   15170   15172
   15167   15170   15171   15168   15167   15170   15168   15167   15169
   15169   15167   15170   15170   15176   15179   15170   15176   15178
   15170   15176   15177   15170   15172   15175   15170   15172   15174
   15170   15172   15173   15171   15170   15176   15171   15170   15172
   15172   15170   15176   15173   15172   15175   15173   15172   15174
   15174   15172   15175   15177   15176   15179   15177   15176   15178
   15178   15176   15179   15180   15226   15223   15180   15226   15228
   15180   15226   15227   15180   15184   15187   15180   15184   15186
   15180   15184   15185   15180   15182   15183   15181   15180   15184
   15181   15180   15226   15182   15180   15184   15182   15180   15226
   15181   15180   15182   15184   15187   15188   15184   15187   15218
   15185   15184   15187   15185   15184   15186   15186   15184   15187
   15187   15218   15216   15187   15218   15219   15187   15218   15223
   15187   15188   15190   15187   15188   15189   15188   15190   15193
   15188   15190   15192   15188   15190   15191   15189   15188   15190
   15190   15193   15195   15190   15193   15216   15190   15193   15194
   15191   15190   15193   15191   15190   15192   15192   15190   15193
   15193   15216   15213   15193   15216   15218   15193   15216   15217
   15193   15195   15197   15193   15195   15205   15193   15195   15196
   15194   15193   15195   15194   15193   15216   15195   15205   15203
   15195   15205   15206   15195   15205   15210   15195   15197   15200
   15195   15197   15199   15195   15197   15198   15196   15195   15197
   15196   15195   15205   15197   15200   15203   15197   15200   15202
   15197   15200   15201   15198   15197   15200   15198   15197   15199
   15199   15197   15200   15200   15203   15229   15200   15203   15205
   15200   15203   15204   15201   15200   15203   15201   15200   15202
   15202   15200   15203   15203   15229   15235   15203   15229   15231
   15203   15229   15230   15204   15203   15229   15204   15203   15205
   15205   15210   15213   15205   15210   15212   15205   15210   15211
   15205   15206   15209   15205   15206   15208   15205   15206   15207
   15205   15203   15229   15197   15195   15205   15203   15205   15206
   15207   15206   15209   15207   15206   15208   15208   15206   15209
   15210   15213   15216   15210   15213   15215   15210   15213   15214
   15203   15205   15210   15206   15205   15210   15211   15210   15213
   15211   15210   15212   15212   15210   15213   15214   15213   15216
   15214   15213   15215   15215   15213   15216   15195   15193   15216
   15213   15216   15217   15217   15216   15218   15218   15219   15222
   15218   15219   15221   15218   15219   15220   15213   15216   15218
   15188   15187   15218   15216   15218   15219   15220   15219   15222
   15220   15219   15221   15221   15219   15222   15216   15218   15223
   15219   15218   15223   15218   15223   15224   15224   15223   15225
   15218   15223   15225   15218   15223   15226   15225   15223   15226
   15224   15223   15226   15184   15180   15226   15223   15226   15227
   15227   15226   15228   15223   15226   15228   15229   15235   15238
   15229   15235   15237   15229   15235   15236   15229   15231   15234
   15229   15231   15233   15229   15231   15232   15230   15229   15235
   15230   15229   15231   15231   15229   15235   15232   15231   15234
   15232   15231   15233   15233   15231   15234   15235   15238   15241
   15235   15238   15240   15235   15238   15239   15236   15235   15238
   15236   15235   15237   15237   15235   15238   15238   15241   15244
   15238   15241   15243   15238   15241   15242   15239   15238   15241
   15239   15238   15240   15240   15238   15241   15241   15244   15250
   15241   15244   15246   15241   15244   15245   15242   15241   15244
   15242   15241   15243   15243   15241   15244   15244   15250   15253
   15244   15250   15252   15244   15250   15251   15244   15246   15249
   15244   15246   15248   15244   15246   15247   15245   15244   15250
   15245   15244   15246   15246   15244   15250   15247   15246   15249
   15247   15246   15248   15248   15246   15249   15251   15250   15253
   15251   15250   15252   15252   15250   15253   15254   15300   15297
   15254   15300   15302   15254   15300   15301   15254   15258   15261
   15254   15258   15260   15254   15258   15259   15254   15256   15257
   15255   15254   15258   15255   15254   15300   15256   15254   15258
   15256   15254   15300   15255   15254   15256   15258   15261   15262
   15258   15261   15292   15259   15258   15261   15259   15258   15260
   15260   15258   15261   15261   15292   15290   15261   15292   15293
   15261   15292   15297   15261   15262   15264   15261   15262   15263
   15262   15264   15267   15262   15264   15266   15262   15264   15265
   15263   15262   15264   15264   15267   15269   15264   15267   15290
   15264   15267   15268   15265   15264   15267   15265   15264   15266
   15266   15264   15267   15267   15290   15287   15267   15290   15292
   15267   15290   15291   15267   15269   15271   15267   15269   15279
   15267   15269   15270   15268   15267   15269   15268   15267   15290
   15269   15279   15277   15269   15279   15280   15269   15279   15284
   15269   15271   15274   15269   15271   15273   15269   15271   15272
   15270   15269   15271   15270   15269   15279   15271   15274   15277
   15271   15274   15276   15271   15274   15275   15272   15271   15274
   15272   15271   15273   15273   15271   15274   15274   15277   15303
   15274   15277   15279   15274   15277   15278   15275   15274   15277
   15275   15274   15276   15276   15274   15277   15277   15303   15309
   15277   15303   15305   15277   15303   15304   15278   15277   15303
   15278   15277   15279   15279   15284   15287   15279   15284   15286
   15279   15284   15285   15279   15280   15283   15279   15280   15282
   15279   15280   15281   15279   15277   15303   15271   15269   15279
   15277   15279   15280   15281   15280   15283   15281   15280   15282
   15282   15280   15283   15284   15287   15290   15284   15287   15289
   15284   15287   15288   15277   15279   15284   15280   15279   15284
   15285   15284   15287   15285   15284   15286   15286   15284   15287
   15288   15287   15290   15288   15287   15289   15289   15287   15290
   15269   15267   15290   15287   15290   15291   15291   15290   15292
   15292   15293   15296   15292   15293   15295   15292   15293   15294
   15287   15290   15292   15262   15261   15292   15290   15292   15293
   15294   15293   15296   15294   15293   15295   15295   15293   15296
   15290   15292   15297   15293   15292   15297   15292   15297   15298
   15298   15297   15299   15292   15297   15299   15292   15297   15300
   15299   15297   15300   15298   15297   15300   15258   15254   15300
   15297   15300   15301   15301   15300   15302   15297   15300   15302
   15303   15309   15312   15303   15309   15311   15303   15309   15310
   15303   15305   15308   15303   15305   15307   15303   15305   15306
   15304   15303   15309   15304   15303   15305   15305   15303   15309
   15306   15305   15308   15306   15305   15307   15307   15305   15308
   15309   15312   15315   15309   15312   15314   15309   15312   15313
   15310   15309   15312   15310   15309   15311   15311   15309   15312
   15312   15315   15318   15312   15315   15317   15312   15315   15316
   15313   15312   15315   15313   15312   15314   15314   15312   15315
   15315   15318   15324   15315   15318   15320   15315   15318   15319
   15316   15315   15318   15316   15315   15317   15317   15315   15318
   15318   15324   15327   15318   15324   15326   15318   15324   15325
   15318   15320   15323   15318   15320   15322   15318   15320   15321
   15319   15318   15324   15319   15318   15320   15320   15318   15324
   15321   15320   15323   15321   15320   15322   15322   15320   15323
   15325   15324   15327   15325   15324   15326   15326   15324   15327
   15328   15374   15371   15328   15374   15376   15328   15374   15375
   15328   15332   15335   15328   15332   15334   15328   15332   15333
   15328   15330   15331   15329   15328   15332   15329   15328   15374
   15330   15328   15332   15330   15328   15374   15329   15328   15330
   15332   15335   15336   15332   15335   15366   15333   15332   15335
   15333   15332   15334   15334   15332   15335   15335   15366   15364
   15335   15366   15367   15335   15366   15371   15335   15336   15338
   15335   15336   15337   15336   15338   15341   15336   15338   15340
   15336   15338   15339   15337   15336   15338   15338   15341   15343
   15338   15341   15364   15338   15341   15342   15339   15338   15341
   15339   15338   15340   15340   15338   15341   15341   15364   15361
   15341   15364   15366   15341   15364   15365   15341   15343   15345
   15341   15343   15353   15341   15343   15344   15342   15341   15343
   15342   15341   15364   15343   15353   15351   15343   15353   15354
   15343   15353   15358   15343   15345   15348   15343   15345   15347
   15343   15345   15346   15344   15343   15345   15344   15343   15353
   15345   15348   15351   15345   15348   15350   15345   15348   15349
   15346   15345   15348   15346   15345   15347   15347   15345   15348
   15348   15351   15377   15348   15351   15353   15348   15351   15352
   15349   15348   15351   15349   15348   15350   15350   15348   15351
   15351   15377   15383   15351   15377   15379   15351   15377   15378
   15352   15351   15377   15352   15351   15353   15353   15358   15361
   15353   15358   15360   15353   15358   15359   15353   15354   15357
   15353   15354   15356   15353   15354   15355   15353   15351   15377
   15345   15343   15353   15351   15353   15354   15355   15354   15357
   15355   15354   15356   15356   15354   15357   15358   15361   15364
   15358   15361   15363   15358   15361   15362   15351   15353   15358
   15354   15353   15358   15359   15358   15361   15359   15358   15360
   15360   15358   15361   15362   15361   15364   15362   15361   15363
   15363   15361   15364   15343   15341   15364   15361   15364   15365
   15365   15364   15366   15366   15367   15370   15366   15367   15369
   15366   15367   15368   15361   15364   15366   15336   15335   15366
   15364   15366   15367   15368   15367   15370   15368   15367   15369
   15369   15367   15370   15364   15366   15371   15367   15366   15371
   15366   15371   15372   15372   15371   15373   15366   15371   15373
   15366   15371   15374   15373   15371   15374   15372   15371   15374
   15332   15328   15374   15371   15374   15375   15375   15374   15376
   15371   15374   15376   15377   15383   15386   15377   15383   15385
   15377   15383   15384   15377   15379   15382   15377   15379   15381
   15377   15379   15380   15378   15377   15383   15378   15377   15379
   15379   15377   15383   15380   15379   15382   15380   15379   15381
   15381   15379   15382   15383   15386   15389   15383   15386   15388
   15383   15386   15387   15384   15383   15386   15384   15383   15385
   15385   15383   15386   15386   15389   15392   15386   15389   15391
   15386   15389   15390   15387   15386   15389   15387   15386   15388
   15388   15386   15389   15389   15392   15398   15389   15392   15394
   15389   15392   15393   15390   15389   15392   15390   15389   15391
   15391   15389   15392   15392   15398   15401   15392   15398   15400
   15392   15398   15399   15392   15394   15397   15392   15394   15396
   15392   15394   15395   15393   15392   15398   15393   15392   15394
   15394   15392   15398   15395   15394   15397   15395   15394   15396
   15396   15394   15397   15399   15398   15401   15399   15398   15400
   15400   15398   15401   15402   15448   15445   15402   15448   15450
   15402   15448   15449   15402   15406   15409   15402   15406   15408
   15402   15406   15407   15402   15404   15405   15403   15402   15406
   15403   15402   15448   15404   15402   15406   15404   15402   15448
   15403   15402   15404   15406   15409   15410   15406   15409   15440
   15407   15406   15409   15407   15406   15408   15408   15406   15409
   15409   15440   15438   15409   15440   15441   15409   15440   15445
   15409   15410   15412   15409   15410   15411   15410   15412   15415
   15410   15412   15414   15410   15412   15413   15411   15410   15412
   15412   15415   15417   15412   15415   15438   15412   15415   15416
   15413   15412   15415   15413   15412   15414   15414   15412   15415
   15415   15438   15435   15415   15438   15440   15415   15438   15439
   15415   15417   15419   15415   15417   15427   15415   15417   15418
   15416   15415   15417   15416   15415   15438   15417   15427   15425
   15417   15427   15428   15417   15427   15432   15417   15419   15422
   15417   15419   15421   15417   15419   15420   15418   15417   15419
   15418   15417   15427   15419   15422   15425   15419   15422   15424
   15419   15422   15423   15420   15419   15422   15420   15419   15421
   15421   15419   15422   15422   15425   15451   15422   15425   15427
   15422   15425   15426   15423   15422   15425   15423   15422   15424
   15424   15422   15425   15425   15451   15457   15425   15451   15453
   15425   15451   15452   15426   15425   15451   15426   15425   15427
   15427   15432   15435   15427   15432   15434   15427   15432   15433
   15427   15428   15431   15427   15428   15430   15427   15428   15429
   15427   15425   15451   15419   15417   15427   15425   15427   15428
   15429   15428   15431   15429   15428   15430   15430   15428   15431
   15432   15435   15438   15432   15435   15437   15432   15435   15436
   15425   15427   15432   15428   15427   15432   15433   15432   15435
   15433   15432   15434   15434   15432   15435   15436   15435   15438
   15436   15435   15437   15437   15435   15438   15417   15415   15438
   15435   15438   15439   15439   15438   15440   15440   15441   15444
   15440   15441   15443   15440   15441   15442   15435   15438   15440
   15410   15409   15440   15438   15440   15441   15442   15441   15444
   15442   15441   15443   15443   15441   15444   15438   15440   15445
   15441   15440   15445   15440   15445   15446   15446   15445   15447
   15440   15445   15447   15440   15445   15448   15447   15445   15448
   15446   15445   15448   15406   15402   15448   15445   15448   15449
   15449   15448   15450   15445   15448   15450   15451   15457   15460
   15451   15457   15459   15451   15457   15458   15451   15453   15456
   15451   15453   15455   15451   15453   15454   15452   15451   15457
   15452   15451   15453   15453   15451   15457   15454   15453   15456
   15454   15453   15455   15455   15453   15456   15457   15460   15463
   15457   15460   15462   15457   15460   15461   15458   15457   15460
   15458   15457   15459   15459   15457   15460   15460   15463   15466
   15460   15463   15465   15460   15463   15464   15461   15460   15463
   15461   15460   15462   15462   15460   15463   15463   15466   15472
   15463   15466   15468   15463   15466   15467   15464   15463   15466
   15464   15463   15465   15465   15463   15466   15466   15472   15475
   15466   15472   15474   15466   15472   15473   15466   15468   15471
   15466   15468   15470   15466   15468   15469   15467   15466   15472
   15467   15466   15468   15468   15466   15472   15469   15468   15471
   15469   15468   15470   15470   15468   15471   15473   15472   15475
   15473   15472   15474   15474   15472   15475   15476   15522   15519
   15476   15522   15524   15476   15522   15523   15476   15480   15483
   15476   15480   15482   15476   15480   15481   15476   15478   15479
   15477   15476   15480   15477   15476   15522   15478   15476   15480
   15478   15476   15522   15477   15476   15478   15480   15483   15484
   15480   15483   15514   15481   15480   15483   15481   15480   15482
   15482   15480   15483   15483   15514   15512   15483   15514   15515
   15483   15514   15519   15483   15484   15486   15483   15484   15485
   15484   15486   15489   15484   15486   15488   15484   15486   15487
   15485   15484   15486   15486   15489   15491   15486   15489   15512
   15486   15489   15490   15487   15486   15489   15487   15486   15488
   15488   15486   15489   15489   15512   15509   15489   15512   15514
   15489   15512   15513   15489   15491   15493   15489   15491   15501
   15489   15491   15492   15490   15489   15491   15490   15489   15512
   15491   15501   15499   15491   15501   15502   15491   15501   15506
   15491   15493   15496   15491   15493   15495   15491   15493   15494
   15492   15491   15493   15492   15491   15501   15493   15496   15499
   15493   15496   15498   15493   15496   15497   15494   15493   15496
   15494   15493   15495   15495   15493   15496   15496   15499   15525
   15496   15499   15501   15496   15499   15500   15497   15496   15499
   15497   15496   15498   15498   15496   15499   15499   15525   15531
   15499   15525   15527   15499   15525   15526   15500   15499   15525
   15500   15499   15501   15501   15506   15509   15501   15506   15508
   15501   15506   15507   15501   15502   15505   15501   15502   15504
   15501   15502   15503   15501   15499   15525   15493   15491   15501
   15499   15501   15502   15503   15502   15505   15503   15502   15504
   15504   15502   15505   15506   15509   15512   15506   15509   15511
   15506   15509   15510   15499   15501   15506   15502   15501   15506
   15507   15506   15509   15507   15506   15508   15508   15506   15509
   15510   15509   15512   15510   15509   15511   15511   15509   15512
   15491   15489   15512   15509   15512   15513   15513   15512   15514
   15514   15515   15518   15514   15515   15517   15514   15515   15516
   15509   15512   15514   15484   15483   15514   15512   15514   15515
   15516   15515   15518   15516   15515   15517   15517   15515   15518
   15512   15514   15519   15515   15514   15519   15514   15519   15520
   15520   15519   15521   15514   15519   15521   15514   15519   15522
   15521   15519   15522   15520   15519   15522   15480   15476   15522
   15519   15522   15523   15523   15522   15524   15519   15522   15524
   15525   15531   15534   15525   15531   15533   15525   15531   15532
   15525   15527   15530   15525   15527   15529   15525   15527   15528
   15526   15525   15531   15526   15525   15527   15527   15525   15531
   15528   15527   15530   15528   15527   15529   15529   15527   15530
   15531   15534   15537   15531   15534   15536   15531   15534   15535
   15532   15531   15534   15532   15531   15533   15533   15531   15534
   15534   15537   15540   15534   15537   15539   15534   15537   15538
   15535   15534   15537   15535   15534   15536   15536   15534   15537
   15537   15540   15546   15537   15540   15542   15537   15540   15541
   15538   15537   15540   15538   15537   15539   15539   15537   15540
   15540   15546   15549   15540   15546   15548   15540   15546   15547
   15540   15542   15545   15540   15542   15544   15540   15542   15543
   15541   15540   15546   15541   15540   15542   15542   15540   15546
   15543   15542   15545   15543   15542   15544   15544   15542   15545
   15547   15546   15549   15547   15546   15548   15548   15546   15549
   15550   15596   15593   15550   15596   15598   15550   15596   15597
   15550   15554   15557   15550   15554   15556   15550   15554   15555
   15550   15552   15553   15551   15550   15554   15551   15550   15596
   15552   15550   15554   15552   15550   15596   15551   15550   15552
   15554   15557   15558   15554   15557   15588   15555   15554   15557
   15555   15554   15556   15556   15554   15557   15557   15588   15586
   15557   15588   15589   15557   15588   15593   15557   15558   15560
   15557   15558   15559   15558   15560   15563   15558   15560   15562
   15558   15560   15561   15559   15558   15560   15560   15563   15565
   15560   15563   15586   15560   15563   15564   15561   15560   15563
   15561   15560   15562   15562   15560   15563   15563   15586   15583
   15563   15586   15588   15563   15586   15587   15563   15565   15567
   15563   15565   15575   15563   15565   15566   15564   15563   15565
   15564   15563   15586   15565   15575   15573   15565   15575   15576
   15565   15575   15580   15565   15567   15570   15565   15567   15569
   15565   15567   15568   15566   15565   15567   15566   15565   15575
   15567   15570   15573   15567   15570   15572   15567   15570   15571
   15568   15567   15570   15568   15567   15569   15569   15567   15570
   15570   15573   15599   15570   15573   15575   15570   15573   15574
   15571   15570   15573   15571   15570   15572   15572   15570   15573
   15573   15599   15605   15573   15599   15601   15573   15599   15600
   15574   15573   15599   15574   15573   15575   15575   15580   15583
   15575   15580   15582   15575   15580   15581   15575   15576   15579
   15575   15576   15578   15575   15576   15577   15575   15573   15599
   15567   15565   15575   15573   15575   15576   15577   15576   15579
   15577   15576   15578   15578   15576   15579   15580   15583   15586
   15580   15583   15585   15580   15583   15584   15573   15575   15580
   15576   15575   15580   15581   15580   15583   15581   15580   15582
   15582   15580   15583   15584   15583   15586   15584   15583   15585
   15585   15583   15586   15565   15563   15586   15583   15586   15587
   15587   15586   15588   15588   15589   15592   15588   15589   15591
   15588   15589   15590   15583   15586   15588   15558   15557   15588
   15586   15588   15589   15590   15589   15592   15590   15589   15591
   15591   15589   15592   15586   15588   15593   15589   15588   15593
   15588   15593   15594   15594   15593   15595   15588   15593   15595
   15588   15593   15596   15595   15593   15596   15594   15593   15596
   15554   15550   15596   15593   15596   15597   15597   15596   15598
   15593   15596   15598   15599   15605   15608   15599   15605   15607
   15599   15605   15606   15599   15601   15604   15599   15601   15603
   15599   15601   15602   15600   15599   15605   15600   15599   15601
   15601   15599   15605   15602   15601   15604   15602   15601   15603
   15603   15601   15604   15605   15608   15611   15605   15608   15610
   15605   15608   15609   15606   15605   15608   15606   15605   15607
   15607   15605   15608   15608   15611   15614   15608   15611   15613
   15608   15611   15612   15609   15608   15611   15609   15608   15610
   15610   15608   15611   15611   15614   15620   15611   15614   15616
   15611   15614   15615   15612   15611   15614   15612   15611   15613
   15613   15611   15614   15614   15620   15623   15614   15620   15622
   15614   15620   15621   15614   15616   15619   15614   15616   15618
   15614   15616   15617   15615   15614   15620   15615   15614   15616
   15616   15614   15620   15617   15616   15619   15617   15616   15618
   15618   15616   15619   15621   15620   15623   15621   15620   15622
   15622   15620   15623   15624   15670   15667   15624   15670   15672
   15624   15670   15671   15624   15628   15631   15624   15628   15630
   15624   15628   15629   15624   15626   15627   15625   15624   15628
   15625   15624   15670   15626   15624   15628   15626   15624   15670
   15625   15624   15626   15628   15631   15632   15628   15631   15662
   15629   15628   15631   15629   15628   15630   15630   15628   15631
   15631   15662   15660   15631   15662   15663   15631   15662   15667
   15631   15632   15634   15631   15632   15633   15632   15634   15637
   15632   15634   15636   15632   15634   15635   15633   15632   15634
   15634   15637   15639   15634   15637   15660   15634   15637   15638
   15635   15634   15637   15635   15634   15636   15636   15634   15637
   15637   15660   15657   15637   15660   15662   15637   15660   15661
   15637   15639   15641   15637   15639   15649   15637   15639   15640
   15638   15637   15639   15638   15637   15660   15639   15649   15647
   15639   15649   15650   15639   15649   15654   15639   15641   15644
   15639   15641   15643   15639   15641   15642   15640   15639   15641
   15640   15639   15649   15641   15644   15647   15641   15644   15646
   15641   15644   15645   15642   15641   15644   15642   15641   15643
   15643   15641   15644   15644   15647   15673   15644   15647   15649
   15644   15647   15648   15645   15644   15647   15645   15644   15646
   15646   15644   15647   15647   15673   15679   15647   15673   15675
   15647   15673   15674   15648   15647   15673   15648   15647   15649
   15649   15654   15657   15649   15654   15656   15649   15654   15655
   15649   15650   15653   15649   15650   15652   15649   15650   15651
   15649   15647   15673   15641   15639   15649   15647   15649   15650
   15651   15650   15653   15651   15650   15652   15652   15650   15653
   15654   15657   15660   15654   15657   15659   15654   15657   15658
   15647   15649   15654   15650   15649   15654   15655   15654   15657
   15655   15654   15656   15656   15654   15657   15658   15657   15660
   15658   15657   15659   15659   15657   15660   15639   15637   15660
   15657   15660   15661   15661   15660   15662   15662   15663   15666
   15662   15663   15665   15662   15663   15664   15657   15660   15662
   15632   15631   15662   15660   15662   15663   15664   15663   15666
   15664   15663   15665   15665   15663   15666   15660   15662   15667
   15663   15662   15667   15662   15667   15668   15668   15667   15669
   15662   15667   15669   15662   15667   15670   15669   15667   15670
   15668   15667   15670   15628   15624   15670   15667   15670   15671
   15671   15670   15672   15667   15670   15672   15673   15679   15682
   15673   15679   15681   15673   15679   15680   15673   15675   15678
   15673   15675   15677   15673   15675   15676   15674   15673   15679
   15674   15673   15675   15675   15673   15679   15676   15675   15678
   15676   15675   15677   15677   15675   15678   15679   15682   15685
   15679   15682   15684   15679   15682   15683   15680   15679   15682
   15680   15679   15681   15681   15679   15682   15682   15685   15688
   15682   15685   15687   15682   15685   15686   15683   15682   15685
   15683   15682   15684   15684   15682   15685   15685   15688   15694
   15685   15688   15690   15685   15688   15689   15686   15685   15688
   15686   15685   15687   15687   15685   15688   15688   15694   15697
   15688   15694   15696   15688   15694   15695   15688   15690   15693
   15688   15690   15692   15688   15690   15691   15689   15688   15694
   15689   15688   15690   15690   15688   15694   15691   15690   15693
   15691   15690   15692   15692   15690   15693   15695   15694   15697
   15695   15694   15696   15696   15694   15697   15698   15744   15741
   15698   15744   15746   15698   15744   15745   15698   15702   15705
   15698   15702   15704   15698   15702   15703   15698   15700   15701
   15699   15698   15702   15699   15698   15744   15700   15698   15702
   15700   15698   15744   15699   15698   15700   15702   15705   15706
   15702   15705   15736   15703   15702   15705   15703   15702   15704
   15704   15702   15705   15705   15736   15734   15705   15736   15737
   15705   15736   15741   15705   15706   15708   15705   15706   15707
   15706   15708   15711   15706   15708   15710   15706   15708   15709
   15707   15706   15708   15708   15711   15713   15708   15711   15734
   15708   15711   15712   15709   15708   15711   15709   15708   15710
   15710   15708   15711   15711   15734   15731   15711   15734   15736
   15711   15734   15735   15711   15713   15715   15711   15713   15723
   15711   15713   15714   15712   15711   15713   15712   15711   15734
   15713   15723   15721   15713   15723   15724   15713   15723   15728
   15713   15715   15718   15713   15715   15717   15713   15715   15716
   15714   15713   15715   15714   15713   15723   15715   15718   15721
   15715   15718   15720   15715   15718   15719   15716   15715   15718
   15716   15715   15717   15717   15715   15718   15718   15721   15747
   15718   15721   15723   15718   15721   15722   15719   15718   15721
   15719   15718   15720   15720   15718   15721   15721   15747   15753
   15721   15747   15749   15721   15747   15748   15722   15721   15747
   15722   15721   15723   15723   15728   15731   15723   15728   15730
   15723   15728   15729   15723   15724   15727   15723   15724   15726
   15723   15724   15725   15723   15721   15747   15715   15713   15723
   15721   15723   15724   15725   15724   15727   15725   15724   15726
   15726   15724   15727   15728   15731   15734   15728   15731   15733
   15728   15731   15732   15721   15723   15728   15724   15723   15728
   15729   15728   15731   15729   15728   15730   15730   15728   15731
   15732   15731   15734   15732   15731   15733   15733   15731   15734
   15713   15711   15734   15731   15734   15735   15735   15734   15736
   15736   15737   15740   15736   15737   15739   15736   15737   15738
   15731   15734   15736   15706   15705   15736   15734   15736   15737
   15738   15737   15740   15738   15737   15739   15739   15737   15740
   15734   15736   15741   15737   15736   15741   15736   15741   15742
   15742   15741   15743   15736   15741   15743   15736   15741   15744
   15743   15741   15744   15742   15741   15744   15702   15698   15744
   15741   15744   15745   15745   15744   15746   15741   15744   15746
   15747   15753   15756   15747   15753   15755   15747   15753   15754
   15747   15749   15752   15747   15749   15751   15747   15749   15750
   15748   15747   15753   15748   15747   15749   15749   15747   15753
   15750   15749   15752   15750   15749   15751   15751   15749   15752
   15753   15756   15759   15753   15756   15758   15753   15756   15757
   15754   15753   15756   15754   15753   15755   15755   15753   15756
   15756   15759   15762   15756   15759   15761   15756   15759   15760
   15757   15756   15759   15757   15756   15758   15758   15756   15759
   15759   15762   15768   15759   15762   15764   15759   15762   15763
   15760   15759   15762   15760   15759   15761   15761   15759   15762
   15762   15768   15771   15762   15768   15770   15762   15768   15769
   15762   15764   15767   15762   15764   15766   15762   15764   15765
   15763   15762   15768   15763   15762   15764   15764   15762   15768
   15765   15764   15767   15765   15764   15766   15766   15764   15767
   15769   15768   15771   15769   15768   15770   15770   15768   15771
   15772   15818   15815   15772   15818   15820   15772   15818   15819
   15772   15776   15779   15772   15776   15778   15772   15776   15777
   15772   15774   15775   15773   15772   15776   15773   15772   15818
   15774   15772   15776   15774   15772   15818   15773   15772   15774
   15776   15779   15780   15776   15779   15810   15777   15776   15779
   15777   15776   15778   15778   15776   15779   15779   15810   15808
   15779   15810   15811   15779   15810   15815   15779   15780   15782
   15779   15780   15781   15780   15782   15785   15780   15782   15784
   15780   15782   15783   15781   15780   15782   15782   15785   15787
   15782   15785   15808   15782   15785   15786   15783   15782   15785
   15783   15782   15784   15784   15782   15785   15785   15808   15805
   15785   15808   15810   15785   15808   15809   15785   15787   15789
   15785   15787   15797   15785   15787   15788   15786   15785   15787
   15786   15785   15808   15787   15797   15795   15787   15797   15798
   15787   15797   15802   15787   15789   15792   15787   15789   15791
   15787   15789   15790   15788   15787   15789   15788   15787   15797
   15789   15792   15795   15789   15792   15794   15789   15792   15793
   15790   15789   15792   15790   15789   15791   15791   15789   15792
   15792   15795   15821   15792   15795   15797   15792   15795   15796
   15793   15792   15795   15793   15792   15794   15794   15792   15795
   15795   15821   15827   15795   15821   15823   15795   15821   15822
   15796   15795   15821   15796   15795   15797   15797   15802   15805
   15797   15802   15804   15797   15802   15803   15797   15798   15801
   15797   15798   15800   15797   15798   15799   15797   15795   15821
   15789   15787   15797   15795   15797   15798   15799   15798   15801
   15799   15798   15800   15800   15798   15801   15802   15805   15808
   15802   15805   15807   15802   15805   15806   15795   15797   15802
   15798   15797   15802   15803   15802   15805   15803   15802   15804
   15804   15802   15805   15806   15805   15808   15806   15805   15807
   15807   15805   15808   15787   15785   15808   15805   15808   15809
   15809   15808   15810   15810   15811   15814   15810   15811   15813
   15810   15811   15812   15805   15808   15810   15780   15779   15810
   15808   15810   15811   15812   15811   15814   15812   15811   15813
   15813   15811   15814   15808   15810   15815   15811   15810   15815
   15810   15815   15816   15816   15815   15817   15810   15815   15817
   15810   15815   15818   15817   15815   15818   15816   15815   15818
   15776   15772   15818   15815   15818   15819   15819   15818   15820
   15815   15818   15820   15821   15827   15830   15821   15827   15829
   15821   15827   15828   15821   15823   15826   15821   15823   15825
   15821   15823   15824   15822   15821   15827   15822   15821   15823
   15823   15821   15827   15824   15823   15826   15824   15823   15825
   15825   15823   15826   15827   15830   15833   15827   15830   15832
   15827   15830   15831   15828   15827   15830   15828   15827   15829
   15829   15827   15830   15830   15833   15836   15830   15833   15835
   15830   15833   15834   15831   15830   15833   15831   15830   15832
   15832   15830   15833   15833   15836   15842   15833   15836   15838
   15833   15836   15837   15834   15833   15836   15834   15833   15835
   15835   15833   15836   15836   15842   15845   15836   15842   15844
   15836   15842   15843   15836   15838   15841   15836   15838   15840
   15836   15838   15839   15837   15836   15842   15837   15836   15838
   15838   15836   15842   15839   15838   15841   15839   15838   15840
   15840   15838   15841   15843   15842   15845   15843   15842   15844
   15844   15842   15845   15846   15892   15889   15846   15892   15894
   15846   15892   15893   15846   15850   15853   15846   15850   15852
   15846   15850   15851   15846   15848   15849   15847   15846   15850
   15847   15846   15892   15848   15846   15850   15848   15846   15892
   15847   15846   15848   15850   15853   15854   15850   15853   15884
   15851   15850   15853   15851   15850   15852   15852   15850   15853
   15853   15884   15882   15853   15884   15885   15853   15884   15889
   15853   15854   15856   15853   15854   15855   15854   15856   15859
   15854   15856   15858   15854   15856   15857   15855   15854   15856
   15856   15859   15861   15856   15859   15882   15856   15859   15860
   15857   15856   15859   15857   15856   15858   15858   15856   15859
   15859   15882   15879   15859   15882   15884   15859   15882   15883
   15859   15861   15863   15859   15861   15871   15859   15861   15862
   15860   15859   15861   15860   15859   15882   15861   15871   15869
   15861   15871   15872   15861   15871   15876   15861   15863   15866
   15861   15863   15865   15861   15863   15864   15862   15861   15863
   15862   15861   15871   15863   15866   15869   15863   15866   15868
   15863   15866   15867   15864   15863   15866   15864   15863   15865
   15865   15863   15866   15866   15869   15895   15866   15869   15871
   15866   15869   15870   15867   15866   15869   15867   15866   15868
   15868   15866   15869   15869   15895   15901   15869   15895   15897
   15869   15895   15896   15870   15869   15895   15870   15869   15871
   15871   15876   15879   15871   15876   15878   15871   15876   15877
   15871   15872   15875   15871   15872   15874   15871   15872   15873
   15871   15869   15895   15863   15861   15871   15869   15871   15872
   15873   15872   15875   15873   15872   15874   15874   15872   15875
   15876   15879   15882   15876   15879   15881   15876   15879   15880
   15869   15871   15876   15872   15871   15876   15877   15876   15879
   15877   15876   15878   15878   15876   15879   15880   15879   15882
   15880   15879   15881   15881   15879   15882   15861   15859   15882
   15879   15882   15883   15883   15882   15884   15884   15885   15888
   15884   15885   15887   15884   15885   15886   15879   15882   15884
   15854   15853   15884   15882   15884   15885   15886   15885   15888
   15886   15885   15887   15887   15885   15888   15882   15884   15889
   15885   15884   15889   15884   15889   15890   15890   15889   15891
   15884   15889   15891   15884   15889   15892   15891   15889   15892
   15890   15889   15892   15850   15846   15892   15889   15892   15893
   15893   15892   15894   15889   15892   15894   15895   15901   15904
   15895   15901   15903   15895   15901   15902   15895   15897   15900
   15895   15897   15899   15895   15897   15898   15896   15895   15901
   15896   15895   15897   15897   15895   15901   15898   15897   15900
   15898   15897   15899   15899   15897   15900   15901   15904   15907
   15901   15904   15906   15901   15904   15905   15902   15901   15904
   15902   15901   15903   15903   15901   15904   15904   15907   15910
   15904   15907   15909   15904   15907   15908   15905   15904   15907
   15905   15904   15906   15906   15904   15907   15907   15910   15916
   15907   15910   15912   15907   15910   15911   15908   15907   15910
   15908   15907   15909   15909   15907   15910   15910   15916   15919
   15910   15916   15918   15910   15916   15917   15910   15912   15915
   15910   15912   15914   15910   15912   15913   15911   15910   15916
   15911   15910   15912   15912   15910   15916   15913   15912   15915
   15913   15912   15914   15914   15912   15915   15917   15916   15919
   15917   15916   15918   15918   15916   15919   15920   15966   15963
   15920   15966   15968   15920   15966   15967   15920   15924   15927
   15920   15924   15926   15920   15924   15925   15920   15922   15923
   15921   15920   15924   15921   15920   15966   15922   15920   15924
   15922   15920   15966   15921   15920   15922   15924   15927   15928
   15924   15927   15958   15925   15924   15927   15925   15924   15926
   15926   15924   15927   15927   15958   15956   15927   15958   15959
   15927   15958   15963   15927   15928   15930   15927   15928   15929
   15928   15930   15933   15928   15930   15932   15928   15930   15931
   15929   15928   15930   15930   15933   15935   15930   15933   15956
   15930   15933   15934   15931   15930   15933   15931   15930   15932
   15932   15930   15933   15933   15956   15953   15933   15956   15958
   15933   15956   15957   15933   15935   15937   15933   15935   15945
   15933   15935   15936   15934   15933   15935   15934   15933   15956
   15935   15945   15943   15935   15945   15946   15935   15945   15950
   15935   15937   15940   15935   15937   15939   15935   15937   15938
   15936   15935   15937   15936   15935   15945   15937   15940   15943
   15937   15940   15942   15937   15940   15941   15938   15937   15940
   15938   15937   15939   15939   15937   15940   15940   15943   15969
   15940   15943   15945   15940   15943   15944   15941   15940   15943
   15941   15940   15942   15942   15940   15943   15943   15969   15975
   15943   15969   15971   15943   15969   15970   15944   15943   15969
   15944   15943   15945   15945   15950   15953   15945   15950   15952
   15945   15950   15951   15945   15946   15949   15945   15946   15948
   15945   15946   15947   15945   15943   15969   15937   15935   15945
   15943   15945   15946   15947   15946   15949   15947   15946   15948
   15948   15946   15949   15950   15953   15956   15950   15953   15955
   15950   15953   15954   15943   15945   15950   15946   15945   15950
   15951   15950   15953   15951   15950   15952   15952   15950   15953
   15954   15953   15956   15954   15953   15955   15955   15953   15956
   15935   15933   15956   15953   15956   15957   15957   15956   15958
   15958   15959   15962   15958   15959   15961   15958   15959   15960
   15953   15956   15958   15928   15927   15958   15956   15958   15959
   15960   15959   15962   15960   15959   15961   15961   15959   15962
   15956   15958   15963   15959   15958   15963   15958   15963   15964
   15964   15963   15965   15958   15963   15965   15958   15963   15966
   15965   15963   15966   15964   15963   15966   15924   15920   15966
   15963   15966   15967   15967   15966   15968   15963   15966   15968
   15969   15975   15978   15969   15975   15977   15969   15975   15976
   15969   15971   15974   15969   15971   15973   15969   15971   15972
   15970   15969   15975   15970   15969   15971   15971   15969   15975
   15972   15971   15974   15972   15971   15973   15973   15971   15974
   15975   15978   15981   15975   15978   15980   15975   15978   15979
   15976   15975   15978   15976   15975   15977   15977   15975   15978
   15978   15981   15984   15978   15981   15983   15978   15981   15982
   15979   15978   15981   15979   15978   15980   15980   15978   15981
   15981   15984   15990   15981   15984   15986   15981   15984   15985
   15982   15981   15984   15982   15981   15983   15983   15981   15984
   15984   15990   15993   15984   15990   15992   15984   15990   15991
   15984   15986   15989   15984   15986   15988   15984   15986   15987
   15985   15984   15990   15985   15984   15986   15986   15984   15990
   15987   15986   15989   15987   15986   15988   15988   15986   15989
   15991   15990   15993   15991   15990   15992   15992   15990   15993
   15994   16040   16037   15994   16040   16042   15994   16040   16041
   15994   15998   16001   15994   15998   16000   15994   15998   15999
   15994   15996   15997   15995   15994   15998   15995   15994   16040
   15996   15994   15998   15996   15994   16040   15995   15994   15996
   15998   16001   16002   15998   16001   16032   15999   15998   16001
   15999   15998   16000   16000   15998   16001   16001   16032   16030
   16001   16032   16033   16001   16032   16037   16001   16002   16004
   16001   16002   16003   16002   16004   16007   16002   16004   16006
   16002   16004   16005   16003   16002   16004   16004   16007   16009
   16004   16007   16030   16004   16007   16008   16005   16004   16007
   16005   16004   16006   16006   16004   16007   16007   16030   16027
   16007   16030   16032   16007   16030   16031   16007   16009   16011
   16007   16009   16019   16007   16009   16010   16008   16007   16009
   16008   16007   16030   16009   16019   16017   16009   16019   16020
   16009   16019   16024   16009   16011   16014   16009   16011   16013
   16009   16011   16012   16010   16009   16011   16010   16009   16019
   16011   16014   16017   16011   16014   16016   16011   16014   16015
   16012   16011   16014   16012   16011   16013   16013   16011   16014
   16014   16017   16043   16014   16017   16019   16014   16017   16018
   16015   16014   16017   16015   16014   16016   16016   16014   16017
   16017   16043   16049   16017   16043   16045   16017   16043   16044
   16018   16017   16043   16018   16017   16019   16019   16024   16027
   16019   16024   16026   16019   16024   16025   16019   16020   16023
   16019   16020   16022   16019   16020   16021   16019   16017   16043
   16011   16009   16019   16017   16019   16020   16021   16020   16023
   16021   16020   16022   16022   16020   16023   16024   16027   16030
   16024   16027   16029   16024   16027   16028   16017   16019   16024
   16020   16019   16024   16025   16024   16027   16025   16024   16026
   16026   16024   16027   16028   16027   16030   16028   16027   16029
   16029   16027   16030   16009   16007   16030   16027   16030   16031
   16031   16030   16032   16032   16033   16036   16032   16033   16035
   16032   16033   16034   16027   16030   16032   16002   16001   16032
   16030   16032   16033   16034   16033   16036   16034   16033   16035
   16035   16033   16036   16030   16032   16037   16033   16032   16037
   16032   16037   16038   16038   16037   16039   16032   16037   16039
   16032   16037   16040   16039   16037   16040   16038   16037   16040
   15998   15994   16040   16037   16040   16041   16041   16040   16042
   16037   16040   16042   16043   16049   16052   16043   16049   16051
   16043   16049   16050   16043   16045   16048   16043   16045   16047
   16043   16045   16046   16044   16043   16049   16044   16043   16045
   16045   16043   16049   16046   16045   16048   16046   16045   16047
   16047   16045   16048   16049   16052   16055   16049   16052   16054
   16049   16052   16053   16050   16049   16052   16050   16049   16051
   16051   16049   16052   16052   16055   16058   16052   16055   16057
   16052   16055   16056   16053   16052   16055   16053   16052   16054
   16054   16052   16055   16055   16058   16064   16055   16058   16060
   16055   16058   16059   16056   16055   16058   16056   16055   16057
   16057   16055   16058   16058   16064   16067   16058   16064   16066
   16058   16064   16065   16058   16060   16063   16058   16060   16062
   16058   16060   16061   16059   16058   16064   16059   16058   16060
   16060   16058   16064   16061   16060   16063   16061   16060   16062
   16062   16060   16063   16065   16064   16067   16065   16064   16066
   16066   16064   16067   16068   16114   16111   16068   16114   16116
   16068   16114   16115   16068   16072   16075   16068   16072   16074
   16068   16072   16073   16068   16070   16071   16069   16068   16072
   16069   16068   16114   16070   16068   16072   16070   16068   16114
   16069   16068   16070   16072   16075   16076   16072   16075   16106
   16073   16072   16075   16073   16072   16074   16074   16072   16075
   16075   16106   16104   16075   16106   16107   16075   16106   16111
   16075   16076   16078   16075   16076   16077   16076   16078   16081
   16076   16078   16080   16076   16078   16079   16077   16076   16078
   16078   16081   16083   16078   16081   16104   16078   16081   16082
   16079   16078   16081   16079   16078   16080   16080   16078   16081
   16081   16104   16101   16081   16104   16106   16081   16104   16105
   16081   16083   16085   16081   16083   16093   16081   16083   16084
   16082   16081   16083   16082   16081   16104   16083   16093   16091
   16083   16093   16094   16083   16093   16098   16083   16085   16088
   16083   16085   16087   16083   16085   16086   16084   16083   16085
   16084   16083   16093   16085   16088   16091   16085   16088   16090
   16085   16088   16089   16086   16085   16088   16086   16085   16087
   16087   16085   16088   16088   16091   16117   16088   16091   16093
   16088   16091   16092   16089   16088   16091   16089   16088   16090
   16090   16088   16091   16091   16117   16123   16091   16117   16119
   16091   16117   16118   16092   16091   16117   16092   16091   16093
   16093   16098   16101   16093   16098   16100   16093   16098   16099
   16093   16094   16097   16093   16094   16096   16093   16094   16095
   16093   16091   16117   16085   16083   16093   16091   16093   16094
   16095   16094   16097   16095   16094   16096   16096   16094   16097
   16098   16101   16104   16098   16101   16103   16098   16101   16102
   16091   16093   16098   16094   16093   16098   16099   16098   16101
   16099   16098   16100   16100   16098   16101   16102   16101   16104
   16102   16101   16103   16103   16101   16104   16083   16081   16104
   16101   16104   16105   16105   16104   16106   16106   16107   16110
   16106   16107   16109   16106   16107   16108   16101   16104   16106
   16076   16075   16106   16104   16106   16107   16108   16107   16110
   16108   16107   16109   16109   16107   16110   16104   16106   16111
   16107   16106   16111   16106   16111   16112   16112   16111   16113
   16106   16111   16113   16106   16111   16114   16113   16111   16114
   16112   16111   16114   16072   16068   16114   16111   16114   16115
   16115   16114   16116   16111   16114   16116   16117   16123   16126
   16117   16123   16125   16117   16123   16124   16117   16119   16122
   16117   16119   16121   16117   16119   16120   16118   16117   16123
   16118   16117   16119   16119   16117   16123   16120   16119   16122
   16120   16119   16121   16121   16119   16122   16123   16126   16129
   16123   16126   16128   16123   16126   16127   16124   16123   16126
   16124   16123   16125   16125   16123   16126   16126   16129   16132
   16126   16129   16131   16126   16129   16130   16127   16126   16129
   16127   16126   16128   16128   16126   16129   16129   16132   16138
   16129   16132   16134   16129   16132   16133   16130   16129   16132
   16130   16129   16131   16131   16129   16132   16132   16138   16141
   16132   16138   16140   16132   16138   16139   16132   16134   16137
   16132   16134   16136   16132   16134   16135   16133   16132   16138
   16133   16132   16134   16134   16132   16138   16135   16134   16137
   16135   16134   16136   16136   16134   16137   16139   16138   16141
   16139   16138   16140   16140   16138   16141   16142   16188   16185
   16142   16188   16190   16142   16188   16189   16142   16146   16149
   16142   16146   16148   16142   16146   16147   16142   16144   16145
   16143   16142   16146   16143   16142   16188   16144   16142   16146
   16144   16142   16188   16143   16142   16144   16146   16149   16150
   16146   16149   16180   16147   16146   16149   16147   16146   16148
   16148   16146   16149   16149   16180   16178   16149   16180   16181
   16149   16180   16185   16149   16150   16152   16149   16150   16151
   16150   16152   16155   16150   16152   16154   16150   16152   16153
   16151   16150   16152   16152   16155   16157   16152   16155   16178
   16152   16155   16156   16153   16152   16155   16153   16152   16154
   16154   16152   16155   16155   16178   16175   16155   16178   16180
   16155   16178   16179   16155   16157   16159   16155   16157   16167
   16155   16157   16158   16156   16155   16157   16156   16155   16178
   16157   16167   16165   16157   16167   16168   16157   16167   16172
   16157   16159   16162   16157   16159   16161   16157   16159   16160
   16158   16157   16159   16158   16157   16167   16159   16162   16165
   16159   16162   16164   16159   16162   16163   16160   16159   16162
   16160   16159   16161   16161   16159   16162   16162   16165   16191
   16162   16165   16167   16162   16165   16166   16163   16162   16165
   16163   16162   16164   16164   16162   16165   16165   16191   16197
   16165   16191   16193   16165   16191   16192   16166   16165   16191
   16166   16165   16167   16167   16172   16175   16167   16172   16174
   16167   16172   16173   16167   16168   16171   16167   16168   16170
   16167   16168   16169   16167   16165   16191   16159   16157   16167
   16165   16167   16168   16169   16168   16171   16169   16168   16170
   16170   16168   16171   16172   16175   16178   16172   16175   16177
   16172   16175   16176   16165   16167   16172   16168   16167   16172
   16173   16172   16175   16173   16172   16174   16174   16172   16175
   16176   16175   16178   16176   16175   16177   16177   16175   16178
   16157   16155   16178   16175   16178   16179   16179   16178   16180
   16180   16181   16184   16180   16181   16183   16180   16181   16182
   16175   16178   16180   16150   16149   16180   16178   16180   16181
   16182   16181   16184   16182   16181   16183   16183   16181   16184
   16178   16180   16185   16181   16180   16185   16180   16185   16186
   16186   16185   16187   16180   16185   16187   16180   16185   16188
   16187   16185   16188   16186   16185   16188   16146   16142   16188
   16185   16188   16189   16189   16188   16190   16185   16188   16190
   16191   16197   16200   16191   16197   16199   16191   16197   16198
   16191   16193   16196   16191   16193   16195   16191   16193   16194
   16192   16191   16197   16192   16191   16193   16193   16191   16197
   16194   16193   16196   16194   16193   16195   16195   16193   16196
   16197   16200   16203   16197   16200   16202   16197   16200   16201
   16198   16197   16200   16198   16197   16199   16199   16197   16200
   16200   16203   16206   16200   16203   16205   16200   16203   16204
   16201   16200   16203   16201   16200   16202   16202   16200   16203
   16203   16206   16212   16203   16206   16208   16203   16206   16207
   16204   16203   16206   16204   16203   16205   16205   16203   16206
   16206   16212   16215   16206   16212   16214   16206   16212   16213
   16206   16208   16211   16206   16208   16210   16206   16208   16209
   16207   16206   16212   16207   16206   16208   16208   16206   16212
   16209   16208   16211   16209   16208   16210   16210   16208   16211
   16213   16212   16215   16213   16212   16214   16214   16212   16215
   16216   16262   16259   16216   16262   16264   16216   16262   16263
   16216   16220   16223   16216   16220   16222   16216   16220   16221
   16216   16218   16219   16217   16216   16220   16217   16216   16262
   16218   16216   16220   16218   16216   16262   16217   16216   16218
   16220   16223   16224   16220   16223   16254   16221   16220   16223
   16221   16220   16222   16222   16220   16223   16223   16254   16252
   16223   16254   16255   16223   16254   16259   16223   16224   16226
   16223   16224   16225   16224   16226   16229   16224   16226   16228
   16224   16226   16227   16225   16224   16226   16226   16229   16231
   16226   16229   16252   16226   16229   16230   16227   16226   16229
   16227   16226   16228   16228   16226   16229   16229   16252   16249
   16229   16252   16254   16229   16252   16253   16229   16231   16233
   16229   16231   16241   16229   16231   16232   16230   16229   16231
   16230   16229   16252   16231   16241   16239   16231   16241   16242
   16231   16241   16246   16231   16233   16236   16231   16233   16235
   16231   16233   16234   16232   16231   16233   16232   16231   16241
   16233   16236   16239   16233   16236   16238   16233   16236   16237
   16234   16233   16236   16234   16233   16235   16235   16233   16236
   16236   16239   16265   16236   16239   16241   16236   16239   16240
   16237   16236   16239   16237   16236   16238   16238   16236   16239
   16239   16265   16271   16239   16265   16267   16239   16265   16266
   16240   16239   16265   16240   16239   16241   16241   16246   16249
   16241   16246   16248   16241   16246   16247   16241   16242   16245
   16241   16242   16244   16241   16242   16243   16241   16239   16265
   16233   16231   16241   16239   16241   16242   16243   16242   16245
   16243   16242   16244   16244   16242   16245   16246   16249   16252
   16246   16249   16251   16246   16249   16250   16239   16241   16246
   16242   16241   16246   16247   16246   16249   16247   16246   16248
   16248   16246   16249   16250   16249   16252   16250   16249   16251
   16251   16249   16252   16231   16229   16252   16249   16252   16253
   16253   16252   16254   16254   16255   16258   16254   16255   16257
   16254   16255   16256   16249   16252   16254   16224   16223   16254
   16252   16254   16255   16256   16255   16258   16256   16255   16257
   16257   16255   16258   16252   16254   16259   16255   16254   16259
   16254   16259   16260   16260   16259   16261   16254   16259   16261
   16254   16259   16262   16261   16259   16262   16260   16259   16262
   16220   16216   16262   16259   16262   16263   16263   16262   16264
   16259   16262   16264   16265   16271   16274   16265   16271   16273
   16265   16271   16272   16265   16267   16270   16265   16267   16269
   16265   16267   16268   16266   16265   16271   16266   16265   16267
   16267   16265   16271   16268   16267   16270   16268   16267   16269
   16269   16267   16270   16271   16274   16277   16271   16274   16276
   16271   16274   16275   16272   16271   16274   16272   16271   16273
   16273   16271   16274   16274   16277   16280   16274   16277   16279
   16274   16277   16278   16275   16274   16277   16275   16274   16276
   16276   16274   16277   16277   16280   16286   16277   16280   16282
   16277   16280   16281   16278   16277   16280   16278   16277   16279
   16279   16277   16280   16280   16286   16289   16280   16286   16288
   16280   16286   16287   16280   16282   16285   16280   16282   16284
   16280   16282   16283   16281   16280   16286   16281   16280   16282
   16282   16280   16286   16283   16282   16285   16283   16282   16284
   16284   16282   16285   16287   16286   16289   16287   16286   16288
   16288   16286   16289   16290   16336   16333   16290   16336   16338
   16290   16336   16337   16290   16294   16297   16290   16294   16296
   16290   16294   16295   16290   16292   16293   16291   16290   16294
   16291   16290   16336   16292   16290   16294   16292   16290   16336
   16291   16290   16292   16294   16297   16298   16294   16297   16328
   16295   16294   16297   16295   16294   16296   16296   16294   16297
   16297   16328   16326   16297   16328   16329   16297   16328   16333
   16297   16298   16300   16297   16298   16299   16298   16300   16303
   16298   16300   16302   16298   16300   16301   16299   16298   16300
   16300   16303   16305   16300   16303   16326   16300   16303   16304
   16301   16300   16303   16301   16300   16302   16302   16300   16303
   16303   16326   16323   16303   16326   16328   16303   16326   16327
   16303   16305   16307   16303   16305   16315   16303   16305   16306
   16304   16303   16305   16304   16303   16326   16305   16315   16313
   16305   16315   16316   16305   16315   16320   16305   16307   16310
   16305   16307   16309   16305   16307   16308   16306   16305   16307
   16306   16305   16315   16307   16310   16313   16307   16310   16312
   16307   16310   16311   16308   16307   16310   16308   16307   16309
   16309   16307   16310   16310   16313   16339   16310   16313   16315
   16310   16313   16314   16311   16310   16313   16311   16310   16312
   16312   16310   16313   16313   16339   16345   16313   16339   16341
   16313   16339   16340   16314   16313   16339   16314   16313   16315
   16315   16320   16323   16315   16320   16322   16315   16320   16321
   16315   16316   16319   16315   16316   16318   16315   16316   16317
   16315   16313   16339   16307   16305   16315   16313   16315   16316
   16317   16316   16319   16317   16316   16318   16318   16316   16319
   16320   16323   16326   16320   16323   16325   16320   16323   16324
   16313   16315   16320   16316   16315   16320   16321   16320   16323
   16321   16320   16322   16322   16320   16323   16324   16323   16326
   16324   16323   16325   16325   16323   16326   16305   16303   16326
   16323   16326   16327   16327   16326   16328   16328   16329   16332
   16328   16329   16331   16328   16329   16330   16323   16326   16328
   16298   16297   16328   16326   16328   16329   16330   16329   16332
   16330   16329   16331   16331   16329   16332   16326   16328   16333
   16329   16328   16333   16328   16333   16334   16334   16333   16335
   16328   16333   16335   16328   16333   16336   16335   16333   16336
   16334   16333   16336   16294   16290   16336   16333   16336   16337
   16337   16336   16338   16333   16336   16338   16339   16345   16348
   16339   16345   16347   16339   16345   16346   16339   16341   16344
   16339   16341   16343   16339   16341   16342   16340   16339   16345
   16340   16339   16341   16341   16339   16345   16342   16341   16344
   16342   16341   16343   16343   16341   16344   16345   16348   16351
   16345   16348   16350   16345   16348   16349   16346   16345   16348
   16346   16345   16347   16347   16345   16348   16348   16351   16354
   16348   16351   16353   16348   16351   16352   16349   16348   16351
   16349   16348   16350   16350   16348   16351   16351   16354   16360
   16351   16354   16356   16351   16354   16355   16352   16351   16354
   16352   16351   16353   16353   16351   16354   16354   16360   16363
   16354   16360   16362   16354   16360   16361   16354   16356   16359
   16354   16356   16358   16354   16356   16357   16355   16354   16360
   16355   16354   16356   16356   16354   16360   16357   16356   16359
   16357   16356   16358   16358   16356   16359   16361   16360   16363
   16361   16360   16362   16362   16360   16363   16364   16373   16376
   16364   16373   16375   16364   16373   16374   16364   16369   16372
   16364   16369   16371   16364   16369   16370   16364   16365   16368
   16364   16365   16367   16364   16365   16366   16366   16365   16368
   16366   16365   16367   16367   16365   16368   16365   16364   16369
   16370   16369   16372   16370   16369   16371   16371   16369   16372
   16365   16364   16373   16369   16364   16373   16374   16373   16376
   16374   16373   16375   16375   16373   16376   16365   16364   16377
   16369   16364   16377   16373   16364   16377   16364   16377   16378
   16378   16377   16379   16364   16377   16379   16364   16377   16380
   16379   16377   16380   16378   16377   16380   16377   16380   16381
   16381   16380   16382   16377   16380   16382   16380   16387   16383
   16384   16383   16385   16385   16383   16386   16384   16383   16386
   16386   16383   16387   16385   16383   16387   16384   16383   16387
   16377   16380   16387   16382   16380   16387   16381   16380   16387
   16388   16393   16391   16383   16386   16388   16386   16388   16389
   16389   16388   16390   16386   16388   16390   16391   16443   16444
   16391   16443   16445   16392   16391   16443   16393   16391   16443
   16392   16391   16393   16386   16388   16393   16390   16388   16393
   16389   16388   16393   16391   16393   16394   16388   16393   16394
   16395   16399   16401   16395   16397   16398   16391   16393   16395
   16388   16393   16395   16394   16393   16395   16393   16395   16396
   16396   16395   16397   16393   16395   16397   16393   16395   16399
   16397   16395   16399   16396   16395   16399   16400   16399   16401
   16395   16399   16400   16399   16401   16402   16399   16401   16403
   16402   16401   16403   16401   16403   16404   16404   16403   16405
   16401   16403   16405   16401   16403   16406   16405   16403   16406
   16404   16403   16406   16403   16406   16407   16407   16406   16408
   16403   16406   16408   16403   16406   16409   16408   16406   16409
   16407   16406   16409   16406   16409   16410   16410   16409   16411
   16406   16409   16411   16406   16409   16412   16411   16409   16412
   16410   16409   16412   16409   16412   16413   16413   16412   16414
   16409   16412   16414   16409   16412   16415   16414   16412   16415
   16413   16412   16415   16412   16415   16416   16416   16415   16417
   16412   16415   16417   16412   16415   16418   16417   16415   16418
   16416   16415   16418   16415   16418   16419   16419   16418   16420
   16415   16418   16420   16415   16418   16421   16420   16418   16421
   16419   16418   16421   16418   16421   16422   16422   16421   16423
   16418   16421   16423   16418   16421   16424   16423   16421   16424
   16422   16421   16424   16421   16424   16425   16425   16424   16426
   16421   16424   16426   16421   16424   16427   16426   16424   16427
   16425   16424   16427   16424   16427   16428   16428   16427   16429
   16424   16427   16429   16424   16427   16430   16429   16427   16430
   16428   16427   16430   16427   16430   16431   16431   16430   16432
   16427   16430   16432   16427   16430   16433   16432   16430   16433
   16431   16430   16433   16430   16433   16434   16434   16433   16435
   16430   16433   16435   16430   16433   16436   16435   16433   16436
   16434   16433   16436   16433   16436   16437   16437   16436   16438
   16433   16436   16438   16433   16436   16439   16438   16436   16439
   16437   16436   16439   16436   16439   16440   16440   16439   16442
   16440   16439   16441   16436   16439   16441   16441   16439   16442
   16436   16439   16442   16443   16445   16448   16443   16445   16447
   16443   16445   16446   16445   16448   16451   16445   16448   16450
   16445   16448   16449   16444   16443   16445   16446   16445   16448
   16446   16445   16447   16447   16445   16448   16448   16451   16454
   16448   16451   16453   16448   16451   16452   16449   16448   16451
   16449   16448   16450   16450   16448   16451   16451   16454   16457
   16451   16454   16456   16451   16454   16455   16452   16451   16454
   16452   16451   16453   16453   16451   16454   16454   16457   16460
   16454   16457   16459   16454   16457   16458   16455   16454   16457
   16455   16454   16456   16456   16454   16457   16457   16460   16463
   16457   16460   16462   16457   16460   16461   16458   16457   16460
   16458   16457   16459   16459   16457   16460   16460   16463   16466
   16460   16463   16465   16460   16463   16464   16461   16460   16463
   16461   16460   16462   16462   16460   16463   16463   16466   16469
   16463   16466   16468   16463   16466   16467   16464   16463   16466
   16464   16463   16465   16465   16463   16466   16466   16469   16472
   16466   16469   16471   16466   16469   16470   16467   16466   16469
   16467   16466   16468   16468   16466   16469   16469   16472   16475
   16469   16472   16474   16469   16472   16473   16470   16469   16472
   16470   16469   16471   16471   16469   16472   16472   16475   16478
   16472   16475   16477   16472   16475   16476   16473   16472   16475
   16473   16472   16474   16474   16472   16475   16475   16478   16481
   16475   16478   16480   16475   16478   16479   16476   16475   16478
   16476   16475   16477   16477   16475   16478   16478   16481   16484
   16478   16481   16483   16478   16481   16482   16479   16478   16481
   16479   16478   16480   16480   16478   16481   16481   16484   16487
   16481   16484   16486   16481   16484   16485   16482   16481   16484
   16482   16481   16483   16483   16481   16484   16484   16487   16490
   16484   16487   16489   16484   16487   16488   16485   16484   16487
   16485   16484   16486   16486   16484   16487   16488   16487   16490
   16488   16487   16489   16489   16487   16490   16491   16503   16506
   16491   16503   16505   16491   16503   16504   16491   16499   16502
   16491   16499   16501   16491   16499   16500   16491   16495   16498
   16491   16495   16497   16491   16495   16496   16491   16492   16507
   16491   16492   16494   16491   16492   16493   16492   16507   16513
   16492   16507   16509   16492   16507   16508   16493   16492   16507
   16493   16492   16494   16494   16492   16507   16492   16491   16495
   16495   16491   16503   16495   16491   16499   16496   16495   16498
   16496   16495   16497   16497   16495   16498   16492   16491   16499
   16499   16491   16503   16500   16499   16502   16500   16499   16501
   16501   16499   16502   16492   16491   16503   16504   16503   16506
   16504   16503   16505   16505   16503   16506   16507   16513   16510
   16508   16507   16513   16508   16507   16509   16509   16507   16513
   16511   16510   16512   16512   16510   16513   16511   16510   16513
   16513   16510   16514   16514   16515   16518   16514   16515   16517
   16514   16515   16516   16512   16510   16514   16511   16510   16514
   16515   16518   16520   16515   16518   16526   16515   16518   16519
   16510   16514   16515   16516   16515   16518   16516   16515   16517
   16517   16515   16518   16518   16526   16529   16518   16526   16528
   16518   16526   16527   16518   16520   16521   16519   16518   16520
   16519   16518   16526   16520   16521   16522   16520   16521   16523
   16521   16523   16535   16521   16523   16525   16521   16523   16524
   16523   16535   16538   16523   16535   16537   16523   16535   16536
   16522   16521   16523   16524   16523   16535   16524   16523   16525
   16525   16523   16535   16526   16529   16530   16520   16518   16526
   16527   16526   16529   16527   16526   16528   16528   16526   16529
   16529   16530   16531   16529   16530   16532   16530   16532   16582
   16530   16532   16534   16530   16532   16533   16532   16582   16585
   16532   16582   16584   16532   16582   16583   16531   16530   16532
   16533   16532   16582   16533   16532   16534   16534   16532   16582
   16535   16538   16541   16535   16538   16540   16535   16538   16539
   16536   16535   16538   16536   16535   16537   16537   16535   16538
   16538   16541   16544   16538   16541   16543   16538   16541   16542
   16539   16538   16541   16539   16538   16540   16540   16538   16541
   16541   16544   16547   16541   16544   16546   16541   16544   16545
   16542   16541   16544   16542   16541   16543   16543   16541   16544
   16544   16547   16550   16544   16547   16549   16544   16547   16548
   16545   16544   16547   16545   16544   16546   16546   16544   16547
   16547   16550   16553   16547   16550   16552   16547   16550   16551
   16548   16547   16550   16548   16547   16549   16549   16547   16550
   16550   16553   16555   16550   16553   16554   16551   16550   16553
   16551   16550   16552   16552   16550   16553   16553   16555   16557
   16553   16555   16556   16554   16553   16555   16555   16557   16560
   16555   16557   16559   16555   16557   16558   16556   16555   16557
   16557   16560   16563   16557   16560   16562   16557   16560   16561
   16558   16557   16560   16558   16557   16559   16559   16557   16560
   16560   16563   16566   16560   16563   16565   16560   16563   16564
   16561   16560   16563   16561   16560   16562   16562   16560   16563
   16563   16566   16569   16563   16566   16568   16563   16566   16567
   16564   16563   16566   16564   16563   16565   16565   16563   16566
   16566   16569   16572   16566   16569   16571   16566   16569   16570
   16567   16566   16569   16567   16566   16568   16568   16566   16569
   16569   16572   16575   16569   16572   16574   16569   16572   16573
   16570   16569   16572   16570   16569   16571   16571   16569   16572
   16572   16575   16578   16572   16575   16577   16572   16575   16576
   16573   16572   16575   16573   16572   16574   16574   16572   16575
   16575   16578   16581   16575   16578   16580   16575   16578   16579
   16576   16575   16578   16576   16575   16577   16577   16575   16578
   16579   16578   16581   16579   16578   16580   16580   16578   16581
   16582   16585   16588   16582   16585   16587   16582   16585   16586
   16583   16582   16585   16583   16582   16584   16584   16582   16585
   16585   16588   16591   16585   16588   16590   16585   16588   16589
   16586   16585   16588   16586   16585   16587   16587   16585   16588
   16588   16591   16594   16588   16591   16593   16588   16591   16592
   16589   16588   16591   16589   16588   16590   16590   16588   16591
   16591   16594   16597   16591   16594   16596   16591   16594   16595
   16592   16591   16594   16592   16591   16593   16593   16591   16594
   16594   16597   16600   16594   16597   16599   16594   16597   16598
   16595   16594   16597   16595   16594   16596   16596   16594   16597
   16597   16600   16603   16597   16600   16602   16597   16600   16601
   16598   16597   16600   16598   16597   16599   16599   16597   16600
   16600   16603   16606   16600   16603   16605   16600   16603   16604
   16601   16600   16603   16601   16600   16602   16602   16600   16603
   16603   16606   16609   16603   16606   16608   16603   16606   16607
   16604   16603   16606   16604   16603   16605   16605   16603   16606
   16606   16609   16612   16606   16609   16611   16606   16609   16610
   16607   16606   16609   16607   16606   16608   16608   16606   16609
   16609   16612   16615   16609   16612   16614   16609   16612   16613
   16610   16609   16612   16610   16609   16611   16611   16609   16612
   16612   16615   16618   16612   16615   16617   16612   16615   16616
   16613   16612   16615   16613   16612   16614   16614   16612   16615
   16615   16618   16621   16615   16618   16620   16615   16618   16619
   16616   16615   16618   16616   16615   16617   16617   16615   16618
   16618   16621   16624   16618   16621   16623   16618   16621   16622
   16619   16618   16621   16619   16618   16620   16620   16618   16621
   16622   16621   16624   16622   16621   16623   16623   16621   16624
   16625   16629   16634   16625   16629   16630   16625   16629   16631
   16626   16625   16629   16626   16625   16628   16626   16625   16627
   16627   16625   16629   16627   16625   16628   16628   16625   16629
   16629   16634   16640   16629   16634   16636   16629   16634   16635
   16629   16631   16632   16630   16629   16634   16631   16629   16634
   16630   16629   16631   16632   16631   16633   16629   16631   16633
   16634   16640   16637   16635   16634   16640   16635   16634   16636
   16636   16634   16640   16638   16637   16639   16639   16637   16640
   16638   16637   16640   16640   16637   16641   16641   16642   16645
   16641   16642   16644   16641   16642   16643   16639   16637   16641
   16638   16637   16641   16642   16645   16647   16642   16645   16653
   16642   16645   16646   16637   16641   16642   16643   16642   16645
   16643   16642   16644   16644   16642   16645   16645   16653   16656
   16645   16653   16655   16645   16653   16654   16645   16647   16648
   16646   16645   16647   16646   16645   16653   16647   16648   16649
   16647   16648   16650   16648   16650   16662   16648   16650   16652
   16648   16650   16651   16650   16662   16665   16650   16662   16664
   16650   16662   16663   16649   16648   16650   16651   16650   16662
   16651   16650   16652   16652   16650   16662   16653   16656   16657
   16647   16645   16653   16654   16653   16656   16654   16653   16655
   16655   16653   16656   16656   16657   16658   16656   16657   16659
   16657   16659   16709   16657   16659   16661   16657   16659   16660
   16659   16709   16712   16659   16709   16711   16659   16709   16710
   16658   16657   16659   16660   16659   16709   16660   16659   16661
   16661   16659   16709   16662   16665   16668   16662   16665   16667
   16662   16665   16666   16663   16662   16665   16663   16662   16664
   16664   16662   16665   16665   16668   16671   16665   16668   16670
   16665   16668   16669   16666   16665   16668   16666   16665   16667
   16667   16665   16668   16668   16671   16674   16668   16671   16673
   16668   16671   16672   16669   16668   16671   16669   16668   16670
   16670   16668   16671   16671   16674   16677   16671   16674   16676
   16671   16674   16675   16672   16671   16674   16672   16671   16673
   16673   16671   16674   16674   16677   16680   16674   16677   16679
   16674   16677   16678   16675   16674   16677   16675   16674   16676
   16676   16674   16677   16677   16680   16682   16677   16680   16681
   16678   16677   16680   16678   16677   16679   16679   16677   16680
   16680   16682   16684   16680   16682   16683   16681   16680   16682
   16682   16684   16687   16682   16684   16686   16682   16684   16685
   16683   16682   16684   16684   16687   16690   16684   16687   16689
   16684   16687   16688   16685   16684   16687   16685   16684   16686
   16686   16684   16687   16687   16690   16693   16687   16690   16692
   16687   16690   16691   16688   16687   16690   16688   16687   16689
   16689   16687   16690   16690   16693   16696   16690   16693   16695
   16690   16693   16694   16691   16690   16693   16691   16690   16692
   16692   16690   16693   16693   16696   16699   16693   16696   16698
   16693   16696   16697   16694   16693   16696   16694   16693   16695
   16695   16693   16696   16696   16699   16702   16696   16699   16701
   16696   16699   16700   16697   16696   16699   16697   16696   16698
   16698   16696   16699   16699   16702   16705   16699   16702   16704
   16699   16702   16703   16700   16699   16702   16700   16699   16701
   16701   16699   16702   16702   16705   16708   16702   16705   16707
   16702   16705   16706   16703   16702   16705   16703   16702   16704
   16704   16702   16705   16706   16705   16708   16706   16705   16707
   16707   16705   16708   16709   16712   16715   16709   16712   16714
   16709   16712   16713   16710   16709   16712   16710   16709   16711
   16711   16709   16712   16712   16715   16718   16712   16715   16717
   16712   16715   16716   16713   16712   16715   16713   16712   16714
   16714   16712   16715   16715   16718   16721   16715   16718   16720
   16715   16718   16719   16716   16715   16718   16716   16715   16717
   16717   16715   16718   16718   16721   16724   16718   16721   16723
   16718   16721   16722   16719   16718   16721   16719   16718   16720
   16720   16718   16721   16721   16724   16727   16721   16724   16726
   16721   16724   16725   16722   16721   16724   16722   16721   16723
   16723   16721   16724   16724   16727   16730   16724   16727   16729
   16724   16727   16728   16725   16724   16727   16725   16724   16726
   16726   16724   16727   16727   16730   16733   16727   16730   16732
   16727   16730   16731   16728   16727   16730   16728   16727   16729
   16729   16727   16730   16730   16733   16736   16730   16733   16735
   16730   16733   16734   16731   16730   16733   16731   16730   16732
   16732   16730   16733   16733   16736   16739   16733   16736   16738
   16733   16736   16737   16734   16733   16736   16734   16733   16735
   16735   16733   16736   16736   16739   16742   16736   16739   16741
   16736   16739   16740   16737   16736   16739   16737   16736   16738
   16738   16736   16739   16739   16742   16745   16739   16742   16744
   16739   16742   16743   16740   16739   16742   16740   16739   16741
   16741   16739   16742   16742   16745   16748   16742   16745   16747
   16742   16745   16746   16743   16742   16745   16743   16742   16744
   16744   16742   16745   16745   16748   16751   16745   16748   16750
   16745   16748   16749   16746   16745   16748   16746   16745   16747
   16747   16745   16748   16749   16748   16751   16749   16748   16750
   16750   16748   16751   16752   16761   16764   16752   16761   16763
   16752   16761   16762   16752   16757   16760   16752   16757   16759
   16752   16757   16758   16752   16753   16756   16752   16753   16755
   16752   16753   16754   16754   16753   16756   16754   16753   16755
   16755   16753   16756   16753   16752   16757   16758   16757   16760
   16758   16757   16759   16759   16757   16760   16753   16752   16761
   16757   16752   16761   16762   16761   16764   16762   16761   16763
   16763   16761   16764   16753   16752   16765   16757   16752   16765
   16761   16752   16765   16752   16765   16766   16766   16765   16767
   16752   16765   16767   16752   16765   16768   16767   16765   16768
   16766   16765   16768   16765   16768   16769   16769   16768   16770
   16765   16768   16770   16768   16775   16771   16772   16771   16773
   16773   16771   16774   16772   16771   16774   16774   16771   16775
   16773   16771   16775   16772   16771   16775   16765   16768   16775
   16770   16768   16775   16769   16768   16775   16776   16781   16779
   16771   16774   16776   16774   16776   16777   16777   16776   16778
   16774   16776   16778   16779   16831   16832   16779   16831   16833
   16780   16779   16831   16781   16779   16831   16780   16779   16781
   16774   16776   16781   16778   16776   16781   16777   16776   16781
   16779   16781   16782   16776   16781   16782   16783   16787   16789
   16783   16785   16786   16779   16781   16783   16776   16781   16783
   16782   16781   16783   16781   16783   16784   16784   16783   16785
   16781   16783   16785   16781   16783   16787   16785   16783   16787
   16784   16783   16787   16788   16787   16789   16783   16787   16788
   16787   16789   16790   16787   16789   16791   16790   16789   16791
   16789   16791   16792   16792   16791   16793   16789   16791   16793
   16789   16791   16794   16793   16791   16794   16792   16791   16794
   16791   16794   16795   16795   16794   16796   16791   16794   16796
   16791   16794   16797   16796   16794   16797   16795   16794   16797
   16794   16797   16798   16798   16797   16799   16794   16797   16799
   16794   16797   16800   16799   16797   16800   16798   16797   16800
   16797   16800   16801   16801   16800   16802   16797   16800   16802
   16797   16800   16803   16802   16800   16803   16801   16800   16803
   16800   16803   16804   16804   16803   16805   16800   16803   16805
   16800   16803   16806   16805   16803   16806   16804   16803   16806
   16803   16806   16807   16807   16806   16808   16803   16806   16808
   16803   16806   16809   16808   16806   16809   16807   16806   16809
   16806   16809   16810   16810   16809   16811   16806   16809   16811
   16806   16809   16812   16811   16809   16812   16810   16809   16812
   16809   16812   16813   16813   16812   16814   16809   16812   16814
   16809   16812   16815   16814   16812   16815   16813   16812   16815
   16812   16815   16816   16816   16815   16817   16812   16815   16817
   16812   16815   16818   16817   16815   16818   16816   16815   16818
   16815   16818   16819   16819   16818   16820   16815   16818   16820
   16815   16818   16821   16820   16818   16821   16819   16818   16821
   16818   16821   16822   16822   16821   16823   16818   16821   16823
   16818   16821   16824   16823   16821   16824   16822   16821   16824
   16821   16824   16825   16825   16824   16826   16821   16824   16826
   16821   16824   16827   16826   16824   16827   16825   16824   16827
   16824   16827   16828   16828   16827   16830   16828   16827   16829
   16824   16827   16829   16829   16827   16830   16824   16827   16830
   16831   16833   16836   16831   16833   16835   16831   16833   16834
   16833   16836   16839   16833   16836   16838   16833   16836   16837
   16832   16831   16833   16834   16833   16836   16834   16833   16835
   16835   16833   16836   16836   16839   16842   16836   16839   16841
   16836   16839   16840   16837   16836   16839   16837   16836   16838
   16838   16836   16839   16839   16842   16845   16839   16842   16844
   16839   16842   16843   16840   16839   16842   16840   16839   16841
   16841   16839   16842   16842   16845   16848   16842   16845   16847
   16842   16845   16846   16843   16842   16845   16843   16842   16844
   16844   16842   16845   16845   16848   16851   16845   16848   16850
   16845   16848   16849   16846   16845   16848   16846   16845   16847
   16847   16845   16848   16848   16851   16854   16848   16851   16853
   16848   16851   16852   16849   16848   16851   16849   16848   16850
   16850   16848   16851   16851   16854   16857   16851   16854   16856
   16851   16854   16855   16852   16851   16854   16852   16851   16853
   16853   16851   16854   16854   16857   16860   16854   16857   16859
   16854   16857   16858   16855   16854   16857   16855   16854   16856
   16856   16854   16857   16857   16860   16863   16857   16860   16862
   16857   16860   16861   16858   16857   16860   16858   16857   16859
   16859   16857   16860   16860   16863   16866   16860   16863   16865
   16860   16863   16864   16861   16860   16863   16861   16860   16862
   16862   16860   16863   16863   16866   16869   16863   16866   16868
   16863   16866   16867   16864   16863   16866   16864   16863   16865
   16865   16863   16866   16866   16869   16872   16866   16869   16871
   16866   16869   16870   16867   16866   16869   16867   16866   16868
   16868   16866   16869   16869   16872   16875   16869   16872   16874
   16869   16872   16873   16870   16869   16872   16870   16869   16871
   16871   16869   16872   16872   16875   16878   16872   16875   16877
   16872   16875   16876   16873   16872   16875   16873   16872   16874
   16874   16872   16875   16876   16875   16878   16876   16875   16877
   16877   16875   16878   16879   16891   16894   16879   16891   16893
   16879   16891   16892   16879   16887   16890   16879   16887   16889
   16879   16887   16888   16879   16883   16886   16879   16883   16885
   16879   16883   16884   16879   16880   16895   16879   16880   16882
   16879   16880   16881   16880   16895   16901   16880   16895   16897
   16880   16895   16896   16881   16880   16895   16881   16880   16882
   16882   16880   16895   16880   16879   16883   16883   16879   16891
   16883   16879   16887   16884   16883   16886   16884   16883   16885
   16885   16883   16886   16880   16879   16887   16887   16879   16891
   16888   16887   16890   16888   16887   16889   16889   16887   16890
   16880   16879   16891   16892   16891   16894   16892   16891   16893
   16893   16891   16894   16895   16901   16898   16896   16895   16901
   16896   16895   16897   16897   16895   16901   16899   16898   16900
   16900   16898   16901   16899   16898   16901   16901   16898   16902
   16902   16903   16906   16902   16903   16905   16902   16903   16904
   16900   16898   16902   16899   16898   16902   16903   16906   16908
   16903   16906   16914   16903   16906   16907   16898   16902   16903
   16904   16903   16906   16904   16903   16905   16905   16903   16906
   16906   16914   16917   16906   16914   16916   16906   16914   16915
   16906   16908   16909   16907   16906   16908   16907   16906   16914
   16908   16909   16910   16908   16909   16911   16909   16911   16923
   16909   16911   16913   16909   16911   16912   16911   16923   16926
   16911   16923   16925   16911   16923   16924   16910   16909   16911
   16912   16911   16923   16912   16911   16913   16913   16911   16923
   16914   16917   16918   16908   16906   16914   16915   16914   16917
   16915   16914   16916   16916   16914   16917   16917   16918   16919
   16917   16918   16920   16918   16920   16970   16918   16920   16922
   16918   16920   16921   16920   16970   16973   16920   16970   16972
   16920   16970   16971   16919   16918   16920   16921   16920   16970
   16921   16920   16922   16922   16920   16970   16923   16926   16929
   16923   16926   16928   16923   16926   16927   16924   16923   16926
   16924   16923   16925   16925   16923   16926   16926   16929   16932
   16926   16929   16931   16926   16929   16930   16927   16926   16929
   16927   16926   16928   16928   16926   16929   16929   16932   16935
   16929   16932   16934   16929   16932   16933   16930   16929   16932
   16930   16929   16931   16931   16929   16932   16932   16935   16938
   16932   16935   16937   16932   16935   16936   16933   16932   16935
   16933   16932   16934   16934   16932   16935   16935   16938   16941
   16935   16938   16940   16935   16938   16939   16936   16935   16938
   16936   16935   16937   16937   16935   16938   16938   16941   16943
   16938   16941   16942   16939   16938   16941   16939   16938   16940
   16940   16938   16941   16941   16943   16945   16941   16943   16944
   16942   16941   16943   16943   16945   16948   16943   16945   16947
   16943   16945   16946   16944   16943   16945   16945   16948   16951
   16945   16948   16950   16945   16948   16949   16946   16945   16948
   16946   16945   16947   16947   16945   16948   16948   16951   16954
   16948   16951   16953   16948   16951   16952   16949   16948   16951
   16949   16948   16950   16950   16948   16951   16951   16954   16957
   16951   16954   16956   16951   16954   16955   16952   16951   16954
   16952   16951   16953   16953   16951   16954   16954   16957   16960
   16954   16957   16959   16954   16957   16958   16955   16954   16957
   16955   16954   16956   16956   16954   16957   16957   16960   16963
   16957   16960   16962   16957   16960   16961   16958   16957   16960
   16958   16957   16959   16959   16957   16960   16960   16963   16966
   16960   16963   16965   16960   16963   16964   16961   16960   16963
   16961   16960   16962   16962   16960   16963   16963   16966   16969
   16963   16966   16968   16963   16966   16967   16964   16963   16966
   16964   16963   16965   16965   16963   16966   16967   16966   16969
   16967   16966   16968   16968   16966   16969   16970   16973   16976
   16970   16973   16975   16970   16973   16974   16971   16970   16973
   16971   16970   16972   16972   16970   16973   16973   16976   16979
   16973   16976   16978   16973   16976   16977   16974   16973   16976
   16974   16973   16975   16975   16973   16976   16976   16979   16982
   16976   16979   16981   16976   16979   16980   16977   16976   16979
   16977   16976   16978   16978   16976   16979   16979   16982   16985
   16979   16982   16984   16979   16982   16983   16980   16979   16982
   16980   16979   16981   16981   16979   16982   16982   16985   16988
   16982   16985   16987   16982   16985   16986   16983   16982   16985
   16983   16982   16984   16984   16982   16985   16985   16988   16991
   16985   16988   16990   16985   16988   16989   16986   16985   16988
   16986   16985   16987   16987   16985   16988   16988   16991   16994
   16988   16991   16993   16988   16991   16992   16989   16988   16991
   16989   16988   16990   16990   16988   16991   16991   16994   16997
   16991   16994   16996   16991   16994   16995   16992   16991   16994
   16992   16991   16993   16993   16991   16994   16994   16997   17000
   16994   16997   16999   16994   16997   16998   16995   16994   16997
   16995   16994   16996   16996   16994   16997   16997   17000   17003
   16997   17000   17002   16997   17000   17001   16998   16997   17000
   16998   16997   16999   16999   16997   17000   17000   17003   17006
   17000   17003   17005   17000   17003   17004   17001   17000   17003
   17001   17000   17002   17002   17000   17003   17003   17006   17009
   17003   17006   17008   17003   17006   17007   17004   17003   17006
   17004   17003   17005   17005   17003   17006   17006   17009   17012
   17006   17009   17011   17006   17009   17010   17007   17006   17009
   17007   17006   17008   17008   17006   17009   17010   17009   17012
   17010   17009   17011   17011   17009   17012   17013   17017   17020
   17013   17017   17019   17013   17017   17018   17014   17013   17017
   17014   17013   17016   17014   17013   17015   17015   17013   17017
   17015   17013   17016   17016   17013   17017   17017   17020   17027
   17017   17020   17022   17017   17020   17021   17018   17017   17020
   17018   17017   17019   17019   17017   17020   17020   17027   17023
   17021   17020   17027   17021   17020   17022   17022   17020   17027
   17023   17026   17028   17024   17023   17025   17025   17023   17026
   17024   17023   17026   17025   17023   17027   17024   17023   17027
   17026   17023   17027   17028   17031   17033   17028   17031   17039
   17028   17031   17032   17026   17028   17029   17029   17028   17031
   17029   17028   17030   17026   17028   17030   17030   17028   17031
   17031   17039   17042   17031   17039   17041   17031   17039   17040
   17031   17033   17034   17026   17028   17031   17032   17031   17033
   17032   17031   17039   17033   17034   17035   17033   17034   17036
   17034   17036   17048   17034   17036   17038   17034   17036   17037
   17036   17048   17051   17036   17048   17050   17036   17048   17049
   17035   17034   17036   17037   17036   17048   17037   17036   17038
   17038   17036   17048   17039   17042   17043   17033   17031   17039
   17040   17039   17042   17040   17039   17041   17041   17039   17042
   17042   17043   17044   17042   17043   17045   17043   17045   17095
   17043   17045   17047   17043   17045   17046   17045   17095   17098
   17045   17095   17097   17045   17095   17096   17044   17043   17045
   17046   17045   17095   17046   17045   17047   17047   17045   17095
   17048   17051   17054   17048   17051   17053   17048   17051   17052
   17049   17048   17051   17049   17048   17050   17050   17048   17051
   17051   17054   17057   17051   17054   17056   17051   17054   17055
   17052   17051   17054   17052   17051   17053   17053   17051   17054
   17054   17057   17060   17054   17057   17059   17054   17057   17058
   17055   17054   17057   17055   17054   17056   17056   17054   17057
   17057   17060   17063   17057   17060   17062   17057   17060   17061
   17058   17057   17060   17058   17057   17059   17059   17057   17060
   17060   17063   17066   17060   17063   17065   17060   17063   17064
   17061   17060   17063   17061   17060   17062   17062   17060   17063
   17063   17066   17068   17063   17066   17067   17064   17063   17066
   17064   17063   17065   17065   17063   17066   17066   17068   17070
   17066   17068   17069   17067   17066   17068   17068   17070   17073
   17068   17070   17072   17068   17070   17071   17069   17068   17070
   17070   17073   17076   17070   17073   17075   17070   17073   17074
   17071   17070   17073   17071   17070   17072   17072   17070   17073
   17073   17076   17079   17073   17076   17078   17073   17076   17077
   17074   17073   17076   17074   17073   17075   17075   17073   17076
   17076   17079   17082   17076   17079   17081   17076   17079   17080
   17077   17076   17079   17077   17076   17078   17078   17076   17079
   17079   17082   17085   17079   17082   17084   17079   17082   17083
   17080   17079   17082   17080   17079   17081   17081   17079   17082
   17082   17085   17088   17082   17085   17087   17082   17085   17086
   17083   17082   17085   17083   17082   17084   17084   17082   17085
   17085   17088   17091   17085   17088   17090   17085   17088   17089
   17086   17085   17088   17086   17085   17087   17087   17085   17088
   17088   17091   17094   17088   17091   17093   17088   17091   17092
   17089   17088   17091   17089   17088   17090   17090   17088   17091
   17092   17091   17094   17092   17091   17093   17093   17091   17094
   17095   17098   17101   17095   17098   17100   17095   17098   17099
   17096   17095   17098   17096   17095   17097   17097   17095   17098
   17098   17101   17104   17098   17101   17103   17098   17101   17102
   17099   17098   17101   17099   17098   17100   17100   17098   17101
   17101   17104   17107   17101   17104   17106   17101   17104   17105
   17102   17101   17104   17102   17101   17103   17103   17101   17104
   17104   17107   17110   17104   17107   17109   17104   17107   17108
   17105   17104   17107   17105   17104   17106   17106   17104   17107
   17107   17110   17113   17107   17110   17112   17107   17110   17111
   17108   17107   17110   17108   17107   17109   17109   17107   17110
   17110   17113   17116   17110   17113   17115   17110   17113   17114
   17111   17110   17113   17111   17110   17112   17112   17110   17113
   17113   17116   17119   17113   17116   17118   17113   17116   17117
   17114   17113   17116   17114   17113   17115   17115   17113   17116
   17116   17119   17122   17116   17119   17121   17116   17119   17120
   17117   17116   17119   17117   17116   17118   17118   17116   17119
   17119   17122   17125   17119   17122   17124   17119   17122   17123
   17120   17119   17122   17120   17119   17121   17121   17119   17122
   17122   17125   17128   17122   17125   17127   17122   17125   17126
   17123   17122   17125   17123   17122   17124   17124   17122   17125
   17125   17128   17131   17125   17128   17130   17125   17128   17129
   17126   17125   17128   17126   17125   17127   17127   17125   17128
   17128   17131   17134   17128   17131   17133   17128   17131   17132
   17129   17128   17131   17129   17128   17130   17130   17128   17131
   17131   17134   17137   17131   17134   17136   17131   17134   17135
   17132   17131   17134   17132   17131   17133   17133   17131   17134
   17135   17134   17137   17135   17134   17136   17136   17134   17137
   17138   17142   17147   17138   17142   17143   17138   17142   17144
   17139   17138   17142   17139   17138   17141   17139   17138   17140
   17140   17138   17142   17140   17138   17141   17141   17138   17142
   17142   17147   17153   17142   17147   17149   17142   17147   17148
   17142   17144   17145   17143   17142   17147   17144   17142   17147
   17143   17142   17144   17145   17144   17146   17142   17144   17146
   17147   17153   17150   17148   17147   17153   17148   17147   17149
   17149   17147   17153   17151   17150   17152   17152   17150   17153
   17151   17150   17153   17153   17150   17154   17154   17155   17158
   17154   17155   17157   17154   17155   17156   17152   17150   17154
   17151   17150   17154   17155   17158   17160   17155   17158   17166
   17155   17158   17159   17150   17154   17155   17156   17155   17158
   17156   17155   17157   17157   17155   17158   17158   17166   17169
   17158   17166   17168   17158   17166   17167   17158   17160   17161
   17159   17158   17160   17159   17158   17166   17160   17161   17162
   17160   17161   17163   17161   17163   17175   17161   17163   17165
   17161   17163   17164   17163   17175   17178   17163   17175   17177
   17163   17175   17176   17162   17161   17163   17164   17163   17175
   17164   17163   17165   17165   17163   17175   17166   17169   17170
   17160   17158   17166   17167   17166   17169   17167   17166   17168
   17168   17166   17169   17169   17170   17171   17169   17170   17172
   17170   17172   17222   17170   17172   17174   17170   17172   17173
   17172   17222   17225   17172   17222   17224   17172   17222   17223
   17171   17170   17172   17173   17172   17222   17173   17172   17174
   17174   17172   17222   17175   17178   17181   17175   17178   17180
   17175   17178   17179   17176   17175   17178   17176   17175   17177
   17177   17175   17178   17178   17181   17184   17178   17181   17183
   17178   17181   17182   17179   17178   17181   17179   17178   17180
   17180   17178   17181   17181   17184   17187   17181   17184   17186
   17181   17184   17185   17182   17181   17184   17182   17181   17183
   17183   17181   17184   17184   17187   17190   17184   17187   17189
   17184   17187   17188   17185   17184   17187   17185   17184   17186
   17186   17184   17187   17187   17190   17193   17187   17190   17192
   17187   17190   17191   17188   17187   17190   17188   17187   17189
   17189   17187   17190   17190   17193   17195   17190   17193   17194
   17191   17190   17193   17191   17190   17192   17192   17190   17193
   17193   17195   17197   17193   17195   17196   17194   17193   17195
   17195   17197   17200   17195   17197   17199   17195   17197   17198
   17196   17195   17197   17197   17200   17203   17197   17200   17202
   17197   17200   17201   17198   17197   17200   17198   17197   17199
   17199   17197   17200   17200   17203   17206   17200   17203   17205
   17200   17203   17204   17201   17200   17203   17201   17200   17202
   17202   17200   17203   17203   17206   17209   17203   17206   17208
   17203   17206   17207   17204   17203   17206   17204   17203   17205
   17205   17203   17206   17206   17209   17212   17206   17209   17211
   17206   17209   17210   17207   17206   17209   17207   17206   17208
   17208   17206   17209   17209   17212   17215   17209   17212   17214
   17209   17212   17213   17210   17209   17212   17210   17209   17211
   17211   17209   17212   17212   17215   17218   17212   17215   17217
   17212   17215   17216   17213   17212   17215   17213   17212   17214
   17214   17212   17215   17215   17218   17221   17215   17218   17220
   17215   17218   17219   17216   17215   17218   17216   17215   17217
   17217   17215   17218   17219   17218   17221   17219   17218   17220
   17220   17218   17221   17222   17225   17228   17222   17225   17227
   17222   17225   17226   17223   17222   17225   17223   17222   17224
   17224   17222   17225   17225   17228   17231   17225   17228   17230
   17225   17228   17229   17226   17225   17228   17226   17225   17227
   17227   17225   17228   17228   17231   17234   17228   17231   17233
   17228   17231   17232   17229   17228   17231   17229   17228   17230
   17230   17228   17231   17231   17234   17237   17231   17234   17236
   17231   17234   17235   17232   17231   17234   17232   17231   17233
   17233   17231   17234   17234   17237   17240   17234   17237   17239
   17234   17237   17238   17235   17234   17237   17235   17234   17236
   17236   17234   17237   17237   17240   17243   17237   17240   17242
   17237   17240   17241   17238   17237   17240   17238   17237   17239
   17239   17237   17240   17240   17243   17246   17240   17243   17245
   17240   17243   17244   17241   17240   17243   17241   17240   17242
   17242   17240   17243   17243   17246   17249   17243   17246   17248
   17243   17246   17247   17244   17243   17246   17244   17243   17245
   17245   17243   17246   17246   17249   17252   17246   17249   17251
   17246   17249   17250   17247   17246   17249   17247   17246   17248
   17248   17246   17249   17249   17252   17255   17249   17252   17254
   17249   17252   17253   17250   17249   17252   17250   17249   17251
   17251   17249   17252   17252   17255   17258   17252   17255   17257
   17252   17255   17256   17253   17252   17255   17253   17252   17254
   17254   17252   17255   17255   17258   17261   17255   17258   17260
   17255   17258   17259   17256   17255   17258   17256   17255   17257
   17257   17255   17258   17258   17261   17264   17258   17261   17263
   17258   17261   17262   17259   17258   17261   17259   17258   17260
   17260   17258   17261   17262   17261   17264   17262   17261   17263
   17263   17261   17264   17265   17269   17272   17265   17269   17271
   17265   17269   17270   17266   17265   17269   17266   17265   17268
   17266   17265   17267   17267   17265   17269   17267   17265   17268
   17268   17265   17269   17269   17272   17279   17269   17272   17274
   17269   17272   17273   17270   17269   17272   17270   17269   17271
   17271   17269   17272   17272   17279   17275   17273   17272   17279
   17273   17272   17274   17274   17272   17279   17275   17278   17280
   17276   17275   17277   17277   17275   17278   17276   17275   17278
   17277   17275   17279   17276   17275   17279   17278   17275   17279
   17280   17283   17285   17280   17283   17291   17280   17283   17284
   17278   17280   17281   17281   17280   17283   17281   17280   17282
   17278   17280   17282   17282   17280   17283   17283   17291   17294
   17283   17291   17293   17283   17291   17292   17283   17285   17286
   17278   17280   17283   17284   17283   17285   17284   17283   17291
   17285   17286   17287   17285   17286   17288   17286   17288   17300
   17286   17288   17290   17286   17288   17289   17288   17300   17303
   17288   17300   17302   17288   17300   17301   17287   17286   17288
   17289   17288   17300   17289   17288   17290   17290   17288   17300
   17291   17294   17295   17285   17283   17291   17292   17291   17294
   17292   17291   17293   17293   17291   17294   17294   17295   17296
   17294   17295   17297   17295   17297   17347   17295   17297   17299
   17295   17297   17298   17297   17347   17350   17297   17347   17349
   17297   17347   17348   17296   17295   17297   17298   17297   17347
   17298   17297   17299   17299   17297   17347   17300   17303   17306
   17300   17303   17305   17300   17303   17304   17301   17300   17303
   17301   17300   17302   17302   17300   17303   17303   17306   17309
   17303   17306   17308   17303   17306   17307   17304   17303   17306
   17304   17303   17305   17305   17303   17306   17306   17309   17312
   17306   17309   17311   17306   17309   17310   17307   17306   17309
   17307   17306   17308   17308   17306   17309   17309   17312   17315
   17309   17312   17314   17309   17312   17313   17310   17309   17312
   17310   17309   17311   17311   17309   17312   17312   17315   17318
   17312   17315   17317   17312   17315   17316   17313   17312   17315
   17313   17312   17314   17314   17312   17315   17315   17318   17320
   17315   17318   17319   17316   17315   17318   17316   17315   17317
   17317   17315   17318   17318   17320   17322   17318   17320   17321
   17319   17318   17320   17320   17322   17325   17320   17322   17324
   17320   17322   17323   17321   17320   17322   17322   17325   17328
   17322   17325   17327   17322   17325   17326   17323   17322   17325
   17323   17322   17324   17324   17322   17325   17325   17328   17331
   17325   17328   17330   17325   17328   17329   17326   17325   17328
   17326   17325   17327   17327   17325   17328   17328   17331   17334
   17328   17331   17333   17328   17331   17332   17329   17328   17331
   17329   17328   17330   17330   17328   17331   17331   17334   17337
   17331   17334   17336   17331   17334   17335   17332   17331   17334
   17332   17331   17333   17333   17331   17334   17334   17337   17340
   17334   17337   17339   17334   17337   17338   17335   17334   17337
   17335   17334   17336   17336   17334   17337   17337   17340   17343
   17337   17340   17342   17337   17340   17341   17338   17337   17340
   17338   17337   17339   17339   17337   17340   17340   17343   17346
   17340   17343   17345   17340   17343   17344   17341   17340   17343
   17341   17340   17342   17342   17340   17343   17344   17343   17346
   17344   17343   17345   17345   17343   17346   17347   17350   17353
   17347   17350   17352   17347   17350   17351   17348   17347   17350
   17348   17347   17349   17349   17347   17350   17350   17353   17356
   17350   17353   17355   17350   17353   17354   17351   17350   17353
   17351   17350   17352   17352   17350   17353   17353   17356   17359
   17353   17356   17358   17353   17356   17357   17354   17353   17356
   17354   17353   17355   17355   17353   17356   17356   17359   17362
   17356   17359   17361   17356   17359   17360   17357   17356   17359
   17357   17356   17358   17358   17356   17359   17359   17362   17365
   17359   17362   17364   17359   17362   17363   17360   17359   17362
   17360   17359   17361   17361   17359   17362   17362   17365   17368
   17362   17365   17367   17362   17365   17366   17363   17362   17365
   17363   17362   17364   17364   17362   17365   17365   17368   17371
   17365   17368   17370   17365   17368   17369   17366   17365   17368
   17366   17365   17367   17367   17365   17368   17368   17371   17374
   17368   17371   17373   17368   17371   17372   17369   17368   17371
   17369   17368   17370   17370   17368   17371   17371   17374   17377
   17371   17374   17376   17371   17374   17375   17372   17371   17374
   17372   17371   17373   17373   17371   17374   17374   17377   17380
   17374   17377   17379   17374   17377   17378   17375   17374   17377
   17375   17374   17376   17376   17374   17377   17377   17380   17383
   17377   17380   17382   17377   17380   17381   17378   17377   17380
   17378   17377   17379   17379   17377   17380   17380   17383   17386
   17380   17383   17385   17380   17383   17384   17381   17380   17383
   17381   17380   17382   17382   17380   17383   17383   17386   17389
   17383   17386   17388   17383   17386   17387   17384   17383   17386
   17384   17383   17385   17385   17383   17386   17387   17386   17389
   17387   17386   17388   17388   17386   17389   17390   17394   17399
   17390   17394   17395   17390   17394   17396   17391   17390   17394
   17391   17390   17393   17391   17390   17392   17392   17390   17394
   17392   17390   17393   17393   17390   17394   17394   17399   17405
   17394   17399   17401   17394   17399   17400   17394   17396   17397
   17395   17394   17399   17396   17394   17399   17395   17394   17396
   17397   17396   17398   17394   17396   17398   17399   17405   17402
   17400   17399   17405   17400   17399   17401   17401   17399   17405
   17403   17402   17404   17404   17402   17405   17403   17402   17405
   17405   17402   17406   17406   17407   17410   17406   17407   17409
   17406   17407   17408   17404   17402   17406   17403   17402   17406
   17407   17410   17412   17407   17410   17418   17407   17410   17411
   17402   17406   17407   17408   17407   17410   17408   17407   17409
   17409   17407   17410   17410   17418   17421   17410   17418   17420
   17410   17418   17419   17410   17412   17413   17411   17410   17412
   17411   17410   17418   17412   17413   17414   17412   17413   17415
   17413   17415   17427   17413   17415   17417   17413   17415   17416
   17415   17427   17430   17415   17427   17429   17415   17427   17428
   17414   17413   17415   17416   17415   17427   17416   17415   17417
   17417   17415   17427   17418   17421   17422   17412   17410   17418
   17419   17418   17421   17419   17418   17420   17420   17418   17421
   17421   17422   17423   17421   17422   17424   17422   17424   17474
   17422   17424   17426   17422   17424   17425   17424   17474   17477
   17424   17474   17476   17424   17474   17475   17423   17422   17424
   17425   17424   17474   17425   17424   17426   17426   17424   17474
   17427   17430   17433   17427   17430   17432   17427   17430   17431
   17428   17427   17430   17428   17427   17429   17429   17427   17430
   17430   17433   17436   17430   17433   17435   17430   17433   17434
   17431   17430   17433   17431   17430   17432   17432   17430   17433
   17433   17436   17439   17433   17436   17438   17433   17436   17437
   17434   17433   17436   17434   17433   17435   17435   17433   17436
   17436   17439   17442   17436   17439   17441   17436   17439   17440
   17437   17436   17439   17437   17436   17438   17438   17436   17439
   17439   17442   17445   17439   17442   17444   17439   17442   17443
   17440   17439   17442   17440   17439   17441   17441   17439   17442
   17442   17445   17447   17442   17445   17446   17443   17442   17445
   17443   17442   17444   17444   17442   17445   17445   17447   17449
   17445   17447   17448   17446   17445   17447   17447   17449   17452
   17447   17449   17451   17447   17449   17450   17448   17447   17449
   17449   17452   17455   17449   17452   17454   17449   17452   17453
   17450   17449   17452   17450   17449   17451   17451   17449   17452
   17452   17455   17458   17452   17455   17457   17452   17455   17456
   17453   17452   17455   17453   17452   17454   17454   17452   17455
   17455   17458   17461   17455   17458   17460   17455   17458   17459
   17456   17455   17458   17456   17455   17457   17457   17455   17458
   17458   17461   17464   17458   17461   17463   17458   17461   17462
   17459   17458   17461   17459   17458   17460   17460   17458   17461
   17461   17464   17467   17461   17464   17466   17461   17464   17465
   17462   17461   17464   17462   17461   17463   17463   17461   17464
   17464   17467   17470   17464   17467   17469   17464   17467   17468
   17465   17464   17467   17465   17464   17466   17466   17464   17467
   17467   17470   17473   17467   17470   17472   17467   17470   17471
   17468   17467   17470   17468   17467   17469   17469   17467   17470
   17471   17470   17473   17471   17470   17472   17472   17470   17473
   17474   17477   17480   17474   17477   17479   17474   17477   17478
   17475   17474   17477   17475   17474   17476   17476   17474   17477
   17477   17480   17483   17477   17480   17482   17477   17480   17481
   17478   17477   17480   17478   17477   17479   17479   17477   17480
   17480   17483   17486   17480   17483   17485   17480   17483   17484
   17481   17480   17483   17481   17480   17482   17482   17480   17483
   17483   17486   17489   17483   17486   17488   17483   17486   17487
   17484   17483   17486   17484   17483   17485   17485   17483   17486
   17486   17489   17492   17486   17489   17491   17486   17489   17490
   17487   17486   17489   17487   17486   17488   17488   17486   17489
   17489   17492   17495   17489   17492   17494   17489   17492   17493
   17490   17489   17492   17490   17489   17491   17491   17489   17492
   17492   17495   17498   17492   17495   17497   17492   17495   17496
   17493   17492   17495   17493   17492   17494   17494   17492   17495
   17495   17498   17501   17495   17498   17500   17495   17498   17499
   17496   17495   17498   17496   17495   17497   17497   17495   17498
   17498   17501   17504   17498   17501   17503   17498   17501   17502
   17499   17498   17501   17499   17498   17500   17500   17498   17501
   17501   17504   17507   17501   17504   17506   17501   17504   17505
   17502   17501   17504   17502   17501   17503   17503   17501   17504
   17504   17507   17510   17504   17507   17509   17504   17507   17508
   17505   17504   17507   17505   17504   17506   17506   17504   17507
   17507   17510   17513   17507   17510   17512   17507   17510   17511
   17508   17507   17510   17508   17507   17509   17509   17507   17510
   17510   17513   17516   17510   17513   17515   17510   17513   17514
   17511   17510   17513   17511   17510   17512   17512   17510   17513
   17514   17513   17516   17514   17513   17515   17515   17513   17516
   17517   17529   17532   17517   17529   17531   17517   17529   17530
   17517   17525   17528   17517   17525   17527   17517   17525   17526
   17517   17521   17524   17517   17521   17523   17517   17521   17522
   17517   17518   17533   17517   17518   17520   17517   17518   17519
   17518   17533   17539   17518   17533   17535   17518   17533   17534
   17519   17518   17533   17519   17518   17520   17520   17518   17533
   17518   17517   17521   17521   17517   17529   17521   17517   17525
   17522   17521   17524   17522   17521   17523   17523   17521   17524
   17518   17517   17525   17525   17517   17529   17526   17525   17528
   17526   17525   17527   17527   17525   17528   17518   17517   17529
   17530   17529   17532   17530   17529   17531   17531   17529   17532
   17533   17539   17536   17534   17533   17539   17534   17533   17535
   17535   17533   17539   17537   17536   17538   17538   17536   17539
   17537   17536   17539   17539   17536   17540   17540   17541   17544
   17540   17541   17543   17540   17541   17542   17538   17536   17540
   17537   17536   17540   17541   17544   17546   17541   17544   17552
   17541   17544   17545   17536   17540   17541   17542   17541   17544
   17542   17541   17543   17543   17541   17544   17544   17552   17555
   17544   17552   17554   17544   17552   17553   17544   17546   17547
   17545   17544   17546   17545   17544   17552   17546   17547   17548
   17546   17547   17549   17547   17549   17561   17547   17549   17551
   17547   17549   17550   17549   17561   17564   17549   17561   17563
   17549   17561   17562   17548   17547   17549   17550   17549   17561
   17550   17549   17551   17551   17549   17561   17552   17555   17556
   17546   17544   17552   17553   17552   17555   17553   17552   17554
   17554   17552   17555   17555   17556   17557   17555   17556   17558
   17556   17558   17608   17556   17558   17560   17556   17558   17559
   17558   17608   17611   17558   17608   17610   17558   17608   17609
   17557   17556   17558   17559   17558   17608   17559   17558   17560
   17560   17558   17608   17561   17564   17567   17561   17564   17566
   17561   17564   17565   17562   17561   17564   17562   17561   17563
   17563   17561   17564   17564   17567   17570   17564   17567   17569
   17564   17567   17568   17565   17564   17567   17565   17564   17566
   17566   17564   17567   17567   17570   17573   17567   17570   17572
   17567   17570   17571   17568   17567   17570   17568   17567   17569
   17569   17567   17570   17570   17573   17576   17570   17573   17575
   17570   17573   17574   17571   17570   17573   17571   17570   17572
   17572   17570   17573   17573   17576   17579   17573   17576   17578
   17573   17576   17577   17574   17573   17576   17574   17573   17575
   17575   17573   17576   17576   17579   17581   17576   17579   17580
   17577   17576   17579   17577   17576   17578   17578   17576   17579
   17579   17581   17583   17579   17581   17582   17580   17579   17581
   17581   17583   17586   17581   17583   17585   17581   17583   17584
   17582   17581   17583   17583   17586   17589   17583   17586   17588
   17583   17586   17587   17584   17583   17586   17584   17583   17585
   17585   17583   17586   17586   17589   17592   17586   17589   17591
   17586   17589   17590   17587   17586   17589   17587   17586   17588
   17588   17586   17589   17589   17592   17595   17589   17592   17594
   17589   17592   17593   17590   17589   17592   17590   17589   17591
   17591   17589   17592   17592   17595   17598   17592   17595   17597
   17592   17595   17596   17593   17592   17595   17593   17592   17594
   17594   17592   17595   17595   17598   17601   17595   17598   17600
   17595   17598   17599   17596   17595   17598   17596   17595   17597
   17597   17595   17598   17598   17601   17604   17598   17601   17603
   17598   17601   17602   17599   17598   17601   17599   17598   17600
   17600   17598   17601   17601   17604   17607   17601   17604   17606
   17601   17604   17605   17602   17601   17604   17602   17601   17603
   17603   17601   17604   17605   17604   17607   17605   17604   17606
   17606   17604   17607   17608   17611   17614   17608   17611   17613
   17608   17611   17612   17609   17608   17611   17609   17608   17610
   17610   17608   17611   17611   17614   17617   17611   17614   17616
   17611   17614   17615   17612   17611   17614   17612   17611   17613
   17613   17611   17614   17614   17617   17620   17614   17617   17619
   17614   17617   17618   17615   17614   17617   17615   17614   17616
   17616   17614   17617   17617   17620   17623   17617   17620   17622
   17617   17620   17621   17618   17617   17620   17618   17617   17619
   17619   17617   17620   17620   17623   17626   17620   17623   17625
   17620   17623   17624   17621   17620   17623   17621   17620   17622
   17622   17620   17623   17623   17626   17629   17623   17626   17628
   17623   17626   17627   17624   17623   17626   17624   17623   17625
   17625   17623   17626   17626   17629   17632   17626   17629   17631
   17626   17629   17630   17627   17626   17629   17627   17626   17628
   17628   17626   17629   17629   17632   17635   17629   17632   17634
   17629   17632   17633   17630   17629   17632   17630   17629   17631
   17631   17629   17632   17632   17635   17638   17632   17635   17637
   17632   17635   17636   17633   17632   17635   17633   17632   17634
   17634   17632   17635   17635   17638   17641   17635   17638   17640
   17635   17638   17639   17636   17635   17638   17636   17635   17637
   17637   17635   17638   17638   17641   17644   17638   17641   17643
   17638   17641   17642   17639   17638   17641   17639   17638   17640
   17640   17638   17641   17641   17644   17647   17641   17644   17646
   17641   17644   17645   17642   17641   17644   17642   17641   17643
   17643   17641   17644   17644   17647   17650   17644   17647   17649
   17644   17647   17648   17645   17644   17647   17645   17644   17646
   17646   17644   17647   17648   17647   17650   17648   17647   17649
   17649   17647   17650   17651   17655   17658   17651   17655   17657
   17651   17655   17656   17652   17651   17655   17652   17651   17654
   17652   17651   17653   17653   17651   17655   17653   17651   17654
   17654   17651   17655   17655   17658   17665   17655   17658   17660
   17655   17658   17659   17656   17655   17658   17656   17655   17657
   17657   17655   17658   17658   17665   17661   17659   17658   17665
   17659   17658   17660   17660   17658   17665   17661   17664   17666
   17662   17661   17663   17663   17661   17664   17662   17661   17664
   17663   17661   17665   17662   17661   17665   17664   17661   17665
   17666   17669   17671   17666   17669   17677   17666   17669   17670
   17664   17666   17667   17667   17666   17669   17667   17666   17668
   17664   17666   17668   17668   17666   17669   17669   17677   17680
   17669   17677   17679   17669   17677   17678   17669   17671   17672
   17664   17666   17669   17670   17669   17671   17670   17669   17677
   17671   17672   17673   17671   17672   17674   17672   17674   17686
   17672   17674   17676   17672   17674   17675   17674   17686   17689
   17674   17686   17688   17674   17686   17687   17673   17672   17674
   17675   17674   17686   17675   17674   17676   17676   17674   17686
   17677   17680   17681   17671   17669   17677   17678   17677   17680
   17678   17677   17679   17679   17677   17680   17680   17681   17682
   17680   17681   17683   17681   17683   17733   17681   17683   17685
   17681   17683   17684   17683   17733   17736   17683   17733   17735
   17683   17733   17734   17682   17681   17683   17684   17683   17733
   17684   17683   17685   17685   17683   17733   17686   17689   17692
   17686   17689   17691   17686   17689   17690   17687   17686   17689
   17687   17686   17688   17688   17686   17689   17689   17692   17695
   17689   17692   17694   17689   17692   17693   17690   17689   17692
   17690   17689   17691   17691   17689   17692   17692   17695   17698
   17692   17695   17697   17692   17695   17696   17693   17692   17695
   17693   17692   17694   17694   17692   17695   17695   17698   17701
   17695   17698   17700   17695   17698   17699   17696   17695   17698
   17696   17695   17697   17697   17695   17698   17698   17701   17704
   17698   17701   17703   17698   17701   17702   17699   17698   17701
   17699   17698   17700   17700   17698   17701   17701   17704   17706
   17701   17704   17705   17702   17701   17704   17702   17701   17703
   17703   17701   17704   17704   17706   17708   17704   17706   17707
   17705   17704   17706   17706   17708   17711   17706   17708   17710
   17706   17708   17709   17707   17706   17708   17708   17711   17714
   17708   17711   17713   17708   17711   17712   17709   17708   17711
   17709   17708   17710   17710   17708   17711   17711   17714   17717
   17711   17714   17716   17711   17714   17715   17712   17711   17714
   17712   17711   17713   17713   17711   17714   17714   17717   17720
   17714   17717   17719   17714   17717   17718   17715   17714   17717
   17715   17714   17716   17716   17714   17717   17717   17720   17723
   17717   17720   17722   17717   17720   17721   17718   17717   17720
   17718   17717   17719   17719   17717   17720   17720   17723   17726
   17720   17723   17725   17720   17723   17724   17721   17720   17723
   17721   17720   17722   17722   17720   17723   17723   17726   17729
   17723   17726   17728   17723   17726   17727   17724   17723   17726
   17724   17723   17725   17725   17723   17726   17726   17729   17732
   17726   17729   17731   17726   17729   17730   17727   17726   17729
   17727   17726   17728   17728   17726   17729   17730   17729   17732
   17730   17729   17731   17731   17729   17732   17733   17736   17739
   17733   17736   17738   17733   17736   17737   17734   17733   17736
   17734   17733   17735   17735   17733   17736   17736   17739   17742
   17736   17739   17741   17736   17739   17740   17737   17736   17739
   17737   17736   17738   17738   17736   17739   17739   17742   17745
   17739   17742   17744   17739   17742   17743   17740   17739   17742
   17740   17739   17741   17741   17739   17742   17742   17745   17748
   17742   17745   17747   17742   17745   17746   17743   17742   17745
   17743   17742   17744   17744   17742   17745   17745   17748   17751
   17745   17748   17750   17745   17748   17749   17746   17745   17748
   17746   17745   17747   17747   17745   17748   17748   17751   17754
   17748   17751   17753   17748   17751   17752   17749   17748   17751
   17749   17748   17750   17750   17748   17751   17751   17754   17757
   17751   17754   17756   17751   17754   17755   17752   17751   17754
   17752   17751   17753   17753   17751   17754   17754   17757   17760
   17754   17757   17759   17754   17757   17758   17755   17754   17757
   17755   17754   17756   17756   17754   17757   17757   17760   17763
   17757   17760   17762   17757   17760   17761   17758   17757   17760
   17758   17757   17759   17759   17757   17760   17760   17763   17766
   17760   17763   17765   17760   17763   17764   17761   17760   17763
   17761   17760   17762   17762   17760   17763   17763   17766   17769
   17763   17766   17768   17763   17766   17767   17764   17763   17766
   17764   17763   17765   17765   17763   17766   17766   17769   17772
   17766   17769   17771   17766   17769   17770   17767   17766   17769
   17767   17766   17768   17768   17766   17769   17769   17772   17775
   17769   17772   17774   17769   17772   17773   17770   17769   17772
   17770   17769   17771   17771   17769   17772   17773   17772   17775
   17773   17772   17774   17774   17772   17775   17776   17788   17791
   17776   17788   17790   17776   17788   17789   17776   17784   17787
   17776   17784   17786   17776   17784   17785   17776   17780   17783
   17776   17780   17782   17776   17780   17781   17776   17777   17792
   17776   17777   17779   17776   17777   17778   17777   17792   17798
   17777   17792   17794   17777   17792   17793   17778   17777   17792
   17778   17777   17779   17779   17777   17792   17777   17776   17780
   17780   17776   17788   17780   17776   17784   17781   17780   17783
   17781   17780   17782   17782   17780   17783   17777   17776   17784
   17784   17776   17788   17785   17784   17787   17785   17784   17786
   17786   17784   17787   17777   17776   17788   17789   17788   17791
   17789   17788   17790   17790   17788   17791   17792   17798   17795
   17793   17792   17798   17793   17792   17794   17794   17792   17798
   17796   17795   17797   17797   17795   17798   17796   17795   17798
   17798   17795   17799   17799   17800   17803   17799   17800   17802
   17799   17800   17801   17797   17795   17799   17796   17795   17799
   17800   17803   17805   17800   17803   17811   17800   17803   17804
   17795   17799   17800   17801   17800   17803   17801   17800   17802
   17802   17800   17803   17803   17811   17814   17803   17811   17813
   17803   17811   17812   17803   17805   17806   17804   17803   17805
   17804   17803   17811   17805   17806   17807   17805   17806   17808
   17806   17808   17820   17806   17808   17810   17806   17808   17809
   17808   17820   17823   17808   17820   17822   17808   17820   17821
   17807   17806   17808   17809   17808   17820   17809   17808   17810
   17810   17808   17820   17811   17814   17815   17805   17803   17811
   17812   17811   17814   17812   17811   17813   17813   17811   17814
   17814   17815   17816   17814   17815   17817   17815   17817   17867
   17815   17817   17819   17815   17817   17818   17817   17867   17870
   17817   17867   17869   17817   17867   17868   17816   17815   17817
   17818   17817   17867   17818   17817   17819   17819   17817   17867
   17820   17823   17826   17820   17823   17825   17820   17823   17824
   17821   17820   17823   17821   17820   17822   17822   17820   17823
   17823   17826   17829   17823   17826   17828   17823   17826   17827
   17824   17823   17826   17824   17823   17825   17825   17823   17826
   17826   17829   17832   17826   17829   17831   17826   17829   17830
   17827   17826   17829   17827   17826   17828   17828   17826   17829
   17829   17832   17835   17829   17832   17834   17829   17832   17833
   17830   17829   17832   17830   17829   17831   17831   17829   17832
   17832   17835   17838   17832   17835   17837   17832   17835   17836
   17833   17832   17835   17833   17832   17834   17834   17832   17835
   17835   17838   17840   17835   17838   17839   17836   17835   17838
   17836   17835   17837   17837   17835   17838   17838   17840   17842
   17838   17840   17841   17839   17838   17840   17840   17842   17845
   17840   17842   17844   17840   17842   17843   17841   17840   17842
   17842   17845   17848   17842   17845   17847   17842   17845   17846
   17843   17842   17845   17843   17842   17844   17844   17842   17845
   17845   17848   17851   17845   17848   17850   17845   17848   17849
   17846   17845   17848   17846   17845   17847   17847   17845   17848
   17848   17851   17854   17848   17851   17853   17848   17851   17852
   17849   17848   17851   17849   17848   17850   17850   17848   17851
   17851   17854   17857   17851   17854   17856   17851   17854   17855
   17852   17851   17854   17852   17851   17853   17853   17851   17854
   17854   17857   17860   17854   17857   17859   17854   17857   17858
   17855   17854   17857   17855   17854   17856   17856   17854   17857
   17857   17860   17863   17857   17860   17862   17857   17860   17861
   17858   17857   17860   17858   17857   17859   17859   17857   17860
   17860   17863   17866   17860   17863   17865   17860   17863   17864
   17861   17860   17863   17861   17860   17862   17862   17860   17863
   17864   17863   17866   17864   17863   17865   17865   17863   17866
   17867   17870   17873   17867   17870   17872   17867   17870   17871
   17868   17867   17870   17868   17867   17869   17869   17867   17870
   17870   17873   17876   17870   17873   17875   17870   17873   17874
   17871   17870   17873   17871   17870   17872   17872   17870   17873
   17873   17876   17879   17873   17876   17878   17873   17876   17877
   17874   17873   17876   17874   17873   17875   17875   17873   17876
   17876   17879   17882   17876   17879   17881   17876   17879   17880
   17877   17876   17879   17877   17876   17878   17878   17876   17879
   17879   17882   17885   17879   17882   17884   17879   17882   17883
   17880   17879   17882   17880   17879   17881   17881   17879   17882
   17882   17885   17888   17882   17885   17887   17882   17885   17886
   17883   17882   17885   17883   17882   17884   17884   17882   17885
   17885   17888   17891   17885   17888   17890   17885   17888   17889
   17886   17885   17888   17886   17885   17887   17887   17885   17888
   17888   17891   17894   17888   17891   17893   17888   17891   17892
   17889   17888   17891   17889   17888   17890   17890   17888   17891
   17891   17894   17897   17891   17894   17896   17891   17894   17895
   17892   17891   17894   17892   17891   17893   17893   17891   17894
   17894   17897   17900   17894   17897   17899   17894   17897   17898
   17895   17894   17897   17895   17894   17896   17896   17894   17897
   17897   17900   17903   17897   17900   17902   17897   17900   17901
   17898   17897   17900   17898   17897   17899   17899   17897   17900
   17900   17903   17906   17900   17903   17905   17900   17903   17904
   17901   17900   17903   17901   17900   17902   17902   17900   17903
   17903   17906   17909   17903   17906   17908   17903   17906   17907
   17904   17903   17906   17904   17903   17905   17905   17903   17906
   17907   17906   17909   17907   17906   17908   17908   17906   17909
   17910   17914   17919   17910   17914   17915   17910   17914   17916
   17911   17910   17914   17911   17910   17913   17911   17910   17912
   17912   17910   17914   17912   17910   17913   17913   17910   17914
   17914   17919   17925   17914   17919   17921   17914   17919   17920
   17914   17916   17917   17915   17914   17919   17916   17914   17919
   17915   17914   17916   17917   17916   17918   17914   17916   17918
   17919   17925   17922   17920   17919   17925   17920   17919   17921
   17921   17919   17925   17923   17922   17924   17924   17922   17925
   17923   17922   17925   17925   17922   17926   17926   17927   17930
   17926   17927   17929   17926   17927   17928   17924   17922   17926
   17923   17922   17926   17927   17930   17932   17927   17930   17938
   17927   17930   17931   17922   17926   17927   17928   17927   17930
   17928   17927   17929   17929   17927   17930   17930   17938   17941
   17930   17938   17940   17930   17938   17939   17930   17932   17933
   17931   17930   17932   17931   17930   17938   17932   17933   17934
   17932   17933   17935   17933   17935   17947   17933   17935   17937
   17933   17935   17936   17935   17947   17950   17935   17947   17949
   17935   17947   17948   17934   17933   17935   17936   17935   17947
   17936   17935   17937   17937   17935   17947   17938   17941   17942
   17932   17930   17938   17939   17938   17941   17939   17938   17940
   17940   17938   17941   17941   17942   17943   17941   17942   17944
   17942   17944   17994   17942   17944   17946   17942   17944   17945
   17944   17994   17997   17944   17994   17996   17944   17994   17995
   17943   17942   17944   17945   17944   17994   17945   17944   17946
   17946   17944   17994   17947   17950   17953   17947   17950   17952
   17947   17950   17951   17948   17947   17950   17948   17947   17949
   17949   17947   17950   17950   17953   17956   17950   17953   17955
   17950   17953   17954   17951   17950   17953   17951   17950   17952
   17952   17950   17953   17953   17956   17959   17953   17956   17958
   17953   17956   17957   17954   17953   17956   17954   17953   17955
   17955   17953   17956   17956   17959   17962   17956   17959   17961
   17956   17959   17960   17957   17956   17959   17957   17956   17958
   17958   17956   17959   17959   17962   17965   17959   17962   17964
   17959   17962   17963   17960   17959   17962   17960   17959   17961
   17961   17959   17962   17962   17965   17967   17962   17965   17966
   17963   17962   17965   17963   17962   17964   17964   17962   17965
   17965   17967   17969   17965   17967   17968   17966   17965   17967
   17967   17969   17972   17967   17969   17971   17967   17969   17970
   17968   17967   17969   17969   17972   17975   17969   17972   17974
   17969   17972   17973   17970   17969   17972   17970   17969   17971
   17971   17969   17972   17972   17975   17978   17972   17975   17977
   17972   17975   17976   17973   17972   17975   17973   17972   17974
   17974   17972   17975   17975   17978   17981   17975   17978   17980
   17975   17978   17979   17976   17975   17978   17976   17975   17977
   17977   17975   17978   17978   17981   17984   17978   17981   17983
   17978   17981   17982   17979   17978   17981   17979   17978   17980
   17980   17978   17981   17981   17984   17987   17981   17984   17986
   17981   17984   17985   17982   17981   17984   17982   17981   17983
   17983   17981   17984   17984   17987   17990   17984   17987   17989
   17984   17987   17988   17985   17984   17987   17985   17984   17986
   17986   17984   17987   17987   17990   17993   17987   17990   17992
   17987   17990   17991   17988   17987   17990   17988   17987   17989
   17989   17987   17990   17991   17990   17993   17991   17990   17992
   17992   17990   17993   17994   17997   18000   17994   17997   17999
   17994   17997   17998   17995   17994   17997   17995   17994   17996
   17996   17994   17997   17997   18000   18003   17997   18000   18002
   17997   18000   18001   17998   17997   18000   17998   17997   17999
   17999   17997   18000   18000   18003   18006   18000   18003   18005
   18000   18003   18004   18001   18000   18003   18001   18000   18002
   18002   18000   18003   18003   18006   18009   18003   18006   18008
   18003   18006   18007   18004   18003   18006   18004   18003   18005
   18005   18003   18006   18006   18009   18012   18006   18009   18011
   18006   18009   18010   18007   18006   18009   18007   18006   18008
   18008   18006   18009   18009   18012   18015   18009   18012   18014
   18009   18012   18013   18010   18009   18012   18010   18009   18011
   18011   18009   18012   18012   18015   18018   18012   18015   18017
   18012   18015   18016   18013   18012   18015   18013   18012   18014
   18014   18012   18015   18015   18018   18021   18015   18018   18020
   18015   18018   18019   18016   18015   18018   18016   18015   18017
   18017   18015   18018   18018   18021   18024   18018   18021   18023
   18018   18021   18022   18019   18018   18021   18019   18018   18020
   18020   18018   18021   18021   18024   18027   18021   18024   18026
   18021   18024   18025   18022   18021   18024   18022   18021   18023
   18023   18021   18024   18024   18027   18030   18024   18027   18029
   18024   18027   18028   18025   18024   18027   18025   18024   18026
   18026   18024   18027   18027   18030   18033   18027   18030   18032
   18027   18030   18031   18028   18027   18030   18028   18027   18029
   18029   18027   18030   18030   18033   18036   18030   18033   18035
   18030   18033   18034   18031   18030   18033   18031   18030   18032
   18032   18030   18033   18034   18033   18036   18034   18033   18035
   18035   18033   18036   18037   18046   18049   18037   18046   18048
   18037   18046   18047   18037   18042   18045   18037   18042   18044
   18037   18042   18043   18037   18038   18041   18037   18038   18040
   18037   18038   18039   18039   18038   18041   18039   18038   18040
   18040   18038   18041   18038   18037   18042   18043   18042   18045
   18043   18042   18044   18044   18042   18045   18038   18037   18046
   18042   18037   18046   18047   18046   18049   18047   18046   18048
   18048   18046   18049   18038   18037   18050   18042   18037   18050
   18046   18037   18050   18037   18050   18051   18051   18050   18052
   18037   18050   18052   18037   18050   18053   18052   18050   18053
   18051   18050   18053   18050   18053   18054   18054   18053   18055
   18050   18053   18055   18053   18060   18056   18057   18056   18058
   18058   18056   18059   18057   18056   18059   18059   18056   18060
   18058   18056   18060   18057   18056   18060   18050   18053   18060
   18055   18053   18060   18054   18053   18060   18061   18066   18064
   18056   18059   18061   18059   18061   18062   18062   18061   18063
   18059   18061   18063   18064   18116   18117   18064   18116   18118
   18065   18064   18116   18066   18064   18116   18065   18064   18066
   18059   18061   18066   18063   18061   18066   18062   18061   18066
   18064   18066   18067   18061   18066   18067   18068   18072   18074
   18068   18070   18071   18064   18066   18068   18061   18066   18068
   18067   18066   18068   18066   18068   18069   18069   18068   18070
   18066   18068   18070   18066   18068   18072   18070   18068   18072
   18069   18068   18072   18073   18072   18074   18068   18072   18073
   18072   18074   18075   18072   18074   18076   18075   18074   18076
   18074   18076   18077   18077   18076   18078   18074   18076   18078
   18074   18076   18079   18078   18076   18079   18077   18076   18079
   18076   18079   18080   18080   18079   18081   18076   18079   18081
   18076   18079   18082   18081   18079   18082   18080   18079   18082
   18079   18082   18083   18083   18082   18084   18079   18082   18084
   18079   18082   18085   18084   18082   18085   18083   18082   18085
   18082   18085   18086   18086   18085   18087   18082   18085   18087
   18082   18085   18088   18087   18085   18088   18086   18085   18088
   18085   18088   18089   18089   18088   18090   18085   18088   18090
   18085   18088   18091   18090   18088   18091   18089   18088   18091
   18088   18091   18092   18092   18091   18093   18088   18091   18093
   18088   18091   18094   18093   18091   18094   18092   18091   18094
   18091   18094   18095   18095   18094   18096   18091   18094   18096
   18091   18094   18097   18096   18094   18097   18095   18094   18097
   18094   18097   18098   18098   18097   18099   18094   18097   18099
   18094   18097   18100   18099   18097   18100   18098   18097   18100
   18097   18100   18101   18101   18100   18102   18097   18100   18102
   18097   18100   18103   18102   18100   18103   18101   18100   18103
   18100   18103   18104   18104   18103   18105   18100   18103   18105
   18100   18103   18106   18105   18103   18106   18104   18103   18106
   18103   18106   18107   18107   18106   18108   18103   18106   18108
   18103   18106   18109   18108   18106   18109   18107   18106   18109
   18106   18109   18110   18110   18109   18111   18106   18109   18111
   18106   18109   18112   18111   18109   18112   18110   18109   18112
   18109   18112   18113   18113   18112   18115   18113   18112   18114
   18109   18112   18114   18114   18112   18115   18109   18112   18115
   18116   18118   18121   18116   18118   18120   18116   18118   18119
   18118   18121   18124   18118   18121   18123   18118   18121   18122
   18117   18116   18118   18119   18118   18121   18119   18118   18120
   18120   18118   18121   18121   18124   18127   18121   18124   18126
   18121   18124   18125   18122   18121   18124   18122   18121   18123
   18123   18121   18124   18124   18127   18130   18124   18127   18129
   18124   18127   18128   18125   18124   18127   18125   18124   18126
   18126   18124   18127   18127   18130   18133   18127   18130   18132
   18127   18130   18131   18128   18127   18130   18128   18127   18129
   18129   18127   18130   18130   18133   18136   18130   18133   18135
   18130   18133   18134   18131   18130   18133   18131   18130   18132
   18132   18130   18133   18133   18136   18139   18133   18136   18138
   18133   18136   18137   18134   18133   18136   18134   18133   18135
   18135   18133   18136   18136   18139   18142   18136   18139   18141
   18136   18139   18140   18137   18136   18139   18137   18136   18138
   18138   18136   18139   18139   18142   18145   18139   18142   18144
   18139   18142   18143   18140   18139   18142   18140   18139   18141
   18141   18139   18142   18142   18145   18148   18142   18145   18147
   18142   18145   18146   18143   18142   18145   18143   18142   18144
   18144   18142   18145   18145   18148   18151   18145   18148   18150
   18145   18148   18149   18146   18145   18148   18146   18145   18147
   18147   18145   18148   18148   18151   18154   18148   18151   18153
   18148   18151   18152   18149   18148   18151   18149   18148   18150
   18150   18148   18151   18151   18154   18157   18151   18154   18156
   18151   18154   18155   18152   18151   18154   18152   18151   18153
   18153   18151   18154   18154   18157   18160   18154   18157   18159
   18154   18157   18158   18155   18154   18157   18155   18154   18156
   18156   18154   18157   18157   18160   18163   18157   18160   18162
   18157   18160   18161   18158   18157   18160   18158   18157   18159
   18159   18157   18160   18161   18160   18163   18161   18160   18162
   18162   18160   18163   18164   18176   18179   18164   18176   18178
   18164   18176   18177   18164   18172   18175   18164   18172   18174
   18164   18172   18173   18164   18168   18171   18164   18168   18170
   18164   18168   18169   18164   18165   18180   18164   18165   18167
   18164   18165   18166   18165   18180   18186   18165   18180   18182
   18165   18180   18181   18166   18165   18180   18166   18165   18167
   18167   18165   18180   18165   18164   18168   18168   18164   18176
   18168   18164   18172   18169   18168   18171   18169   18168   18170
   18170   18168   18171   18165   18164   18172   18172   18164   18176
   18173   18172   18175   18173   18172   18174   18174   18172   18175
   18165   18164   18176   18177   18176   18179   18177   18176   18178
   18178   18176   18179   18180   18186   18183   18181   18180   18186
   18181   18180   18182   18182   18180   18186   18184   18183   18185
   18185   18183   18186   18184   18183   18186   18186   18183   18187
   18187   18188   18191   18187   18188   18190   18187   18188   18189
   18185   18183   18187   18184   18183   18187   18188   18191   18193
   18188   18191   18199   18188   18191   18192   18183   18187   18188
   18189   18188   18191   18189   18188   18190   18190   18188   18191
   18191   18199   18202   18191   18199   18201   18191   18199   18200
   18191   18193   18194   18192   18191   18193   18192   18191   18199
   18193   18194   18195   18193   18194   18196   18194   18196   18208
   18194   18196   18198   18194   18196   18197   18196   18208   18211
   18196   18208   18210   18196   18208   18209   18195   18194   18196
   18197   18196   18208   18197   18196   18198   18198   18196   18208
   18199   18202   18203   18193   18191   18199   18200   18199   18202
   18200   18199   18201   18201   18199   18202   18202   18203   18204
   18202   18203   18205   18203   18205   18255   18203   18205   18207
   18203   18205   18206   18205   18255   18258   18205   18255   18257
   18205   18255   18256   18204   18203   18205   18206   18205   18255
   18206   18205   18207   18207   18205   18255   18208   18211   18214
   18208   18211   18213   18208   18211   18212   18209   18208   18211
   18209   18208   18210   18210   18208   18211   18211   18214   18217
   18211   18214   18216   18211   18214   18215   18212   18211   18214
   18212   18211   18213   18213   18211   18214   18214   18217   18220
   18214   18217   18219   18214   18217   18218   18215   18214   18217
   18215   18214   18216   18216   18214   18217   18217   18220   18223
   18217   18220   18222   18217   18220   18221   18218   18217   18220
   18218   18217   18219   18219   18217   18220   18220   18223   18226
   18220   18223   18225   18220   18223   18224   18221   18220   18223
   18221   18220   18222   18222   18220   18223   18223   18226   18228
   18223   18226   18227   18224   18223   18226   18224   18223   18225
   18225   18223   18226   18226   18228   18230   18226   18228   18229
   18227   18226   18228   18228   18230   18233   18228   18230   18232
   18228   18230   18231   18229   18228   18230   18230   18233   18236
   18230   18233   18235   18230   18233   18234   18231   18230   18233
   18231   18230   18232   18232   18230   18233   18233   18236   18239
   18233   18236   18238   18233   18236   18237   18234   18233   18236
   18234   18233   18235   18235   18233   18236   18236   18239   18242
   18236   18239   18241   18236   18239   18240   18237   18236   18239
   18237   18236   18238   18238   18236   18239   18239   18242   18245
   18239   18242   18244   18239   18242   18243   18240   18239   18242
   18240   18239   18241   18241   18239   18242   18242   18245   18248
   18242   18245   18247   18242   18245   18246   18243   18242   18245
   18243   18242   18244   18244   18242   18245   18245   18248   18251
   18245   18248   18250   18245   18248   18249   18246   18245   18248
   18246   18245   18247   18247   18245   18248   18248   18251   18254
   18248   18251   18253   18248   18251   18252   18249   18248   18251
   18249   18248   18250   18250   18248   18251   18252   18251   18254
   18252   18251   18253   18253   18251   18254   18255   18258   18261
   18255   18258   18260   18255   18258   18259   18256   18255   18258
   18256   18255   18257   18257   18255   18258   18258   18261   18264
   18258   18261   18263   18258   18261   18262   18259   18258   18261
   18259   18258   18260   18260   18258   18261   18261   18264   18267
   18261   18264   18266   18261   18264   18265   18262   18261   18264
   18262   18261   18263   18263   18261   18264   18264   18267   18270
   18264   18267   18269   18264   18267   18268   18265   18264   18267
   18265   18264   18266   18266   18264   18267   18267   18270   18273
   18267   18270   18272   18267   18270   18271   18268   18267   18270
   18268   18267   18269   18269   18267   18270   18270   18273   18276
   18270   18273   18275   18270   18273   18274   18271   18270   18273
   18271   18270   18272   18272   18270   18273   18273   18276   18279
   18273   18276   18278   18273   18276   18277   18274   18273   18276
   18274   18273   18275   18275   18273   18276   18276   18279   18282
   18276   18279   18281   18276   18279   18280   18277   18276   18279
   18277   18276   18278   18278   18276   18279   18279   18282   18285
   18279   18282   18284   18279   18282   18283   18280   18279   18282
   18280   18279   18281   18281   18279   18282   18282   18285   18288
   18282   18285   18287   18282   18285   18286   18283   18282   18285
   18283   18282   18284   18284   18282   18285   18285   18288   18291
   18285   18288   18290   18285   18288   18289   18286   18285   18288
   18286   18285   18287   18287   18285   18288   18288   18291   18294
   18288   18291   18293   18288   18291   18292   18289   18288   18291
   18289   18288   18290   18290   18288   18291   18291   18294   18297
   18291   18294   18296   18291   18294   18295   18292   18291   18294
   18292   18291   18293   18293   18291   18294   18295   18294   18297
   18295   18294   18296   18296   18294   18297   18298   18302   18307
   18298   18302   18303   18298   18302   18304   18299   18298   18302
   18299   18298   18301   18299   18298   18300   18300   18298   18302
   18300   18298   18301   18301   18298   18302   18302   18307   18313
   18302   18307   18309   18302   18307   18308   18302   18304   18305
   18303   18302   18307   18304   18302   18307   18303   18302   18304
   18305   18304   18306   18302   18304   18306   18307   18313   18310
   18308   18307   18313   18308   18307   18309   18309   18307   18313
   18311   18310   18312   18312   18310   18313   18311   18310   18313
   18313   18310   18314   18314   18315   18318   18314   18315   18317
   18314   18315   18316   18312   18310   18314   18311   18310   18314
   18315   18318   18320   18315   18318   18326   18315   18318   18319
   18310   18314   18315   18316   18315   18318   18316   18315   18317
   18317   18315   18318   18318   18326   18329   18318   18326   18328
   18318   18326   18327   18318   18320   18321   18319   18318   18320
   18319   18318   18326   18320   18321   18322   18320   18321   18323
   18321   18323   18335   18321   18323   18325   18321   18323   18324
   18323   18335   18338   18323   18335   18337   18323   18335   18336
   18322   18321   18323   18324   18323   18335   18324   18323   18325
   18325   18323   18335   18326   18329   18330   18320   18318   18326
   18327   18326   18329   18327   18326   18328   18328   18326   18329
   18329   18330   18331   18329   18330   18332   18330   18332   18382
   18330   18332   18334   18330   18332   18333   18332   18382   18385
   18332   18382   18384   18332   18382   18383   18331   18330   18332
   18333   18332   18382   18333   18332   18334   18334   18332   18382
   18335   18338   18341   18335   18338   18340   18335   18338   18339
   18336   18335   18338   18336   18335   18337   18337   18335   18338
   18338   18341   18344   18338   18341   18343   18338   18341   18342
   18339   18338   18341   18339   18338   18340   18340   18338   18341
   18341   18344   18347   18341   18344   18346   18341   18344   18345
   18342   18341   18344   18342   18341   18343   18343   18341   18344
   18344   18347   18350   18344   18347   18349   18344   18347   18348
   18345   18344   18347   18345   18344   18346   18346   18344   18347
   18347   18350   18353   18347   18350   18352   18347   18350   18351
   18348   18347   18350   18348   18347   18349   18349   18347   18350
   18350   18353   18355   18350   18353   18354   18351   18350   18353
   18351   18350   18352   18352   18350   18353   18353   18355   18357
   18353   18355   18356   18354   18353   18355   18355   18357   18360
   18355   18357   18359   18355   18357   18358   18356   18355   18357
   18357   18360   18363   18357   18360   18362   18357   18360   18361
   18358   18357   18360   18358   18357   18359   18359   18357   18360
   18360   18363   18366   18360   18363   18365   18360   18363   18364
   18361   18360   18363   18361   18360   18362   18362   18360   18363
   18363   18366   18369   18363   18366   18368   18363   18366   18367
   18364   18363   18366   18364   18363   18365   18365   18363   18366
   18366   18369   18372   18366   18369   18371   18366   18369   18370
   18367   18366   18369   18367   18366   18368   18368   18366   18369
   18369   18372   18375   18369   18372   18374   18369   18372   18373
   18370   18369   18372   18370   18369   18371   18371   18369   18372
   18372   18375   18378   18372   18375   18377   18372   18375   18376
   18373   18372   18375   18373   18372   18374   18374   18372   18375
   18375   18378   18381   18375   18378   18380   18375   18378   18379
   18376   18375   18378   18376   18375   18377   18377   18375   18378
   18379   18378   18381   18379   18378   18380   18380   18378   18381
   18382   18385   18388   18382   18385   18387   18382   18385   18386
   18383   18382   18385   18383   18382   18384   18384   18382   18385
   18385   18388   18391   18385   18388   18390   18385   18388   18389
   18386   18385   18388   18386   18385   18387   18387   18385   18388
   18388   18391   18394   18388   18391   18393   18388   18391   18392
   18389   18388   18391   18389   18388   18390   18390   18388   18391
   18391   18394   18397   18391   18394   18396   18391   18394   18395
   18392   18391   18394   18392   18391   18393   18393   18391   18394
   18394   18397   18400   18394   18397   18399   18394   18397   18398
   18395   18394   18397   18395   18394   18396   18396   18394   18397
   18397   18400   18403   18397   18400   18402   18397   18400   18401
   18398   18397   18400   18398   18397   18399   18399   18397   18400
   18400   18403   18406   18400   18403   18405   18400   18403   18404
   18401   18400   18403   18401   18400   18402   18402   18400   18403
   18403   18406   18409   18403   18406   18408   18403   18406   18407
   18404   18403   18406   18404   18403   18405   18405   18403   18406
   18406   18409   18412   18406   18409   18411   18406   18409   18410
   18407   18406   18409   18407   18406   18408   18408   18406   18409
   18409   18412   18415   18409   18412   18414   18409   18412   18413
   18410   18409   18412   18410   18409   18411   18411   18409   18412
   18412   18415   18418   18412   18415   18417   18412   18415   18416
   18413   18412   18415   18413   18412   18414   18414   18412   18415
   18415   18418   18421   18415   18418   18420   18415   18418   18419
   18416   18415   18418   18416   18415   18417   18417   18415   18418
   18418   18421   18424   18418   18421   18423   18418   18421   18422
   18419   18418   18421   18419   18418   18420   18420   18418   18421
   18422   18421   18424   18422   18421   18423   18423   18421   18424
   18425   18434   18437   18425   18434   18436   18425   18434   18435
   18425   18430   18433   18425   18430   18432   18425   18430   18431
   18425   18426   18429   18425   18426   18428   18425   18426   18427
   18427   18426   18429   18427   18426   18428   18428   18426   18429
   18426   18425   18430   18431   18430   18433   18431   18430   18432
   18432   18430   18433   18426   18425   18434   18430   18425   18434
   18435   18434   18437   18435   18434   18436   18436   18434   18437
   18426   18425   18438   18430   18425   18438   18434   18425   18438
   18425   18438   18439   18439   18438   18440   18425   18438   18440
   18425   18438   18441   18440   18438   18441   18439   18438   18441
   18438   18441   18442   18442   18441   18443   18438   18441   18443
   18441   18448   18444   18445   18444   18446   18446   18444   18447
   18445   18444   18447   18447   18444   18448   18446   18444   18448
   18445   18444   18448   18438   18441   18448   18443   18441   18448
   18442   18441   18448   18449   18454   18452   18444   18447   18449
   18447   18449   18450   18450   18449   18451   18447   18449   18451
   18452   18504   18505   18452   18504   18506   18453   18452   18504
   18454   18452   18504   18453   18452   18454   18447   18449   18454
   18451   18449   18454   18450   18449   18454   18452   18454   18455
   18449   18454   18455   18456   18460   18462   18456   18458   18459
   18452   18454   18456   18449   18454   18456   18455   18454   18456
   18454   18456   18457   18457   18456   18458   18454   18456   18458
   18454   18456   18460   18458   18456   18460   18457   18456   18460
   18461   18460   18462   18456   18460   18461   18460   18462   18463
   18460   18462   18464   18463   18462   18464   18462   18464   18465
   18465   18464   18466   18462   18464   18466   18462   18464   18467
   18466   18464   18467   18465   18464   18467   18464   18467   18468
   18468   18467   18469   18464   18467   18469   18464   18467   18470
   18469   18467   18470   18468   18467   18470   18467   18470   18471
   18471   18470   18472   18467   18470   18472   18467   18470   18473
   18472   18470   18473   18471   18470   18473   18470   18473   18474
   18474   18473   18475   18470   18473   18475   18470   18473   18476
   18475   18473   18476   18474   18473   18476   18473   18476   18477
   18477   18476   18478   18473   18476   18478   18473   18476   18479
   18478   18476   18479   18477   18476   18479   18476   18479   18480
   18480   18479   18481   18476   18479   18481   18476   18479   18482
   18481   18479   18482   18480   18479   18482   18479   18482   18483
   18483   18482   18484   18479   18482   18484   18479   18482   18485
   18484   18482   18485   18483   18482   18485   18482   18485   18486
   18486   18485   18487   18482   18485   18487   18482   18485   18488
   18487   18485   18488   18486   18485   18488   18485   18488   18489
   18489   18488   18490   18485   18488   18490   18485   18488   18491
   18490   18488   18491   18489   18488   18491   18488   18491   18492
   18492   18491   18493   18488   18491   18493   18488   18491   18494
   18493   18491   18494   18492   18491   18494   18491   18494   18495
   18495   18494   18496   18491   18494   18496   18491   18494   18497
   18496   18494   18497   18495   18494   18497   18494   18497   18498
   18498   18497   18499   18494   18497   18499   18494   18497   18500
   18499   18497   18500   18498   18497   18500   18497   18500   18501
   18501   18500   18503   18501   18500   18502   18497   18500   18502
   18502   18500   18503   18497   18500   18503   18504   18506   18509
   18504   18506   18508   18504   18506   18507   18506   18509   18512
   18506   18509   18511   18506   18509   18510   18505   18504   18506
   18507   18506   18509   18507   18506   18508   18508   18506   18509
   18509   18512   18515   18509   18512   18514   18509   18512   18513
   18510   18509   18512   18510   18509   18511   18511   18509   18512
   18512   18515   18518   18512   18515   18517   18512   18515   18516
   18513   18512   18515   18513   18512   18514   18514   18512   18515
   18515   18518   18521   18515   18518   18520   18515   18518   18519
   18516   18515   18518   18516   18515   18517   18517   18515   18518
   18518   18521   18524   18518   18521   18523   18518   18521   18522
   18519   18518   18521   18519   18518   18520   18520   18518   18521
   18521   18524   18527   18521   18524   18526   18521   18524   18525
   18522   18521   18524   18522   18521   18523   18523   18521   18524
   18524   18527   18530   18524   18527   18529   18524   18527   18528
   18525   18524   18527   18525   18524   18526   18526   18524   18527
   18527   18530   18533   18527   18530   18532   18527   18530   18531
   18528   18527   18530   18528   18527   18529   18529   18527   18530
   18530   18533   18536   18530   18533   18535   18530   18533   18534
   18531   18530   18533   18531   18530   18532   18532   18530   18533
   18533   18536   18539   18533   18536   18538   18533   18536   18537
   18534   18533   18536   18534   18533   18535   18535   18533   18536
   18536   18539   18542   18536   18539   18541   18536   18539   18540
   18537   18536   18539   18537   18536   18538   18538   18536   18539
   18539   18542   18545   18539   18542   18544   18539   18542   18543
   18540   18539   18542   18540   18539   18541   18541   18539   18542
   18542   18545   18548   18542   18545   18547   18542   18545   18546
   18543   18542   18545   18543   18542   18544   18544   18542   18545
   18545   18548   18551   18545   18548   18550   18545   18548   18549
   18546   18545   18548   18546   18545   18547   18547   18545   18548
   18549   18548   18551   18549   18548   18550   18550   18548   18551
   18552   18564   18567   18552   18564   18566   18552   18564   18565
   18552   18560   18563   18552   18560   18562   18552   18560   18561
   18552   18556   18559   18552   18556   18558   18552   18556   18557
   18552   18553   18568   18552   18553   18555   18552   18553   18554
   18553   18568   18574   18553   18568   18570   18553   18568   18569
   18554   18553   18568   18554   18553   18555   18555   18553   18568
   18553   18552   18556   18556   18552   18564   18556   18552   18560
   18557   18556   18559   18557   18556   18558   18558   18556   18559
   18553   18552   18560   18560   18552   18564   18561   18560   18563
   18561   18560   18562   18562   18560   18563   18553   18552   18564
   18565   18564   18567   18565   18564   18566   18566   18564   18567
   18568   18574   18571   18569   18568   18574   18569   18568   18570
   18570   18568   18574   18572   18571   18573   18573   18571   18574
   18572   18571   18574   18574   18571   18575   18575   18576   18579
   18575   18576   18578   18575   18576   18577   18573   18571   18575
   18572   18571   18575   18576   18579   18581   18576   18579   18587
   18576   18579   18580   18571   18575   18576   18577   18576   18579
   18577   18576   18578   18578   18576   18579   18579   18587   18590
   18579   18587   18589   18579   18587   18588   18579   18581   18582
   18580   18579   18581   18580   18579   18587   18581   18582   18583
   18581   18582   18584   18582   18584   18596   18582   18584   18586
   18582   18584   18585   18584   18596   18599   18584   18596   18598
   18584   18596   18597   18583   18582   18584   18585   18584   18596
   18585   18584   18586   18586   18584   18596   18587   18590   18591
   18581   18579   18587   18588   18587   18590   18588   18587   18589
   18589   18587   18590   18590   18591   18592   18590   18591   18593
   18591   18593   18643   18591   18593   18595   18591   18593   18594
   18593   18643   18646   18593   18643   18645   18593   18643   18644
   18592   18591   18593   18594   18593   18643   18594   18593   18595
   18595   18593   18643   18596   18599   18602   18596   18599   18601
   18596   18599   18600   18597   18596   18599   18597   18596   18598
   18598   18596   18599   18599   18602   18605   18599   18602   18604
   18599   18602   18603   18600   18599   18602   18600   18599   18601
   18601   18599   18602   18602   18605   18608   18602   18605   18607
   18602   18605   18606   18603   18602   18605   18603   18602   18604
   18604   18602   18605   18605   18608   18611   18605   18608   18610
   18605   18608   18609   18606   18605   18608   18606   18605   18607
   18607   18605   18608   18608   18611   18614   18608   18611   18613
   18608   18611   18612   18609   18608   18611   18609   18608   18610
   18610   18608   18611   18611   18614   18616   18611   18614   18615
   18612   18611   18614   18612   18611   18613   18613   18611   18614
   18614   18616   18618   18614   18616   18617   18615   18614   18616
   18616   18618   18621   18616   18618   18620   18616   18618   18619
   18617   18616   18618   18618   18621   18624   18618   18621   18623
   18618   18621   18622   18619   18618   18621   18619   18618   18620
   18620   18618   18621   18621   18624   18627   18621   18624   18626
   18621   18624   18625   18622   18621   18624   18622   18621   18623
   18623   18621   18624   18624   18627   18630   18624   18627   18629
   18624   18627   18628   18625   18624   18627   18625   18624   18626
   18626   18624   18627   18627   18630   18633   18627   18630   18632
   18627   18630   18631   18628   18627   18630   18628   18627   18629
   18629   18627   18630   18630   18633   18636   18630   18633   18635
   18630   18633   18634   18631   18630   18633   18631   18630   18632
   18632   18630   18633   18633   18636   18639   18633   18636   18638
   18633   18636   18637   18634   18633   18636   18634   18633   18635
   18635   18633   18636   18636   18639   18642   18636   18639   18641
   18636   18639   18640   18637   18636   18639   18637   18636   18638
   18638   18636   18639   18640   18639   18642   18640   18639   18641
   18641   18639   18642   18643   18646   18649   18643   18646   18648
   18643   18646   18647   18644   18643   18646   18644   18643   18645
   18645   18643   18646   18646   18649   18652   18646   18649   18651
   18646   18649   18650   18647   18646   18649   18647   18646   18648
   18648   18646   18649   18649   18652   18655   18649   18652   18654
   18649   18652   18653   18650   18649   18652   18650   18649   18651
   18651   18649   18652   18652   18655   18658   18652   18655   18657
   18652   18655   18656   18653   18652   18655   18653   18652   18654
   18654   18652   18655   18655   18658   18661   18655   18658   18660
   18655   18658   18659   18656   18655   18658   18656   18655   18657
   18657   18655   18658   18658   18661   18664   18658   18661   18663
   18658   18661   18662   18659   18658   18661   18659   18658   18660
   18660   18658   18661   18661   18664   18667   18661   18664   18666
   18661   18664   18665   18662   18661   18664   18662   18661   18663
   18663   18661   18664   18664   18667   18670   18664   18667   18669
   18664   18667   18668   18665   18664   18667   18665   18664   18666
   18666   18664   18667   18667   18670   18673   18667   18670   18672
   18667   18670   18671   18668   18667   18670   18668   18667   18669
   18669   18667   18670   18670   18673   18676   18670   18673   18675
   18670   18673   18674   18671   18670   18673   18671   18670   18672
   18672   18670   18673   18673   18676   18679   18673   18676   18678
   18673   18676   18677   18674   18673   18676   18674   18673   18675
   18675   18673   18676   18676   18679   18682   18676   18679   18681
   18676   18679   18680   18677   18676   18679   18677   18676   18678
   18678   18676   18679   18679   18682   18685   18679   18682   18684
   18679   18682   18683   18680   18679   18682   18680   18679   18681
   18681   18679   18682   18683   18682   18685   18683   18682   18684
   18684   18682   18685   18686   18695   18698   18686   18695   18697
   18686   18695   18696   18686   18691   18694   18686   18691   18693
   18686   18691   18692   18686   18687   18690   18686   18687   18689
   18686   18687   18688   18688   18687   18690   18688   18687   18689
   18689   18687   18690   18687   18686   18691   18692   18691   18694
   18692   18691   18693   18693   18691   18694   18687   18686   18695
   18691   18686   18695   18696   18695   18698   18696   18695   18697
   18697   18695   18698   18687   18686   18699   18691   18686   18699
   18695   18686   18699   18686   18699   18700   18700   18699   18701
   18686   18699   18701   18686   18699   18702   18701   18699   18702
   18700   18699   18702   18699   18702   18703   18703   18702   18704
   18699   18702   18704   18702   18709   18705   18706   18705   18707
   18707   18705   18708   18706   18705   18708   18708   18705   18709
   18707   18705   18709   18706   18705   18709   18699   18702   18709
   18704   18702   18709   18703   18702   18709   18710   18715   18713
   18705   18708   18710   18708   18710   18711   18711   18710   18712
   18708   18710   18712   18713   18765   18766   18713   18765   18767
   18714   18713   18765   18715   18713   18765   18714   18713   18715
   18708   18710   18715   18712   18710   18715   18711   18710   18715
   18713   18715   18716   18710   18715   18716   18717   18721   18723
   18717   18719   18720   18713   18715   18717   18710   18715   18717
   18716   18715   18717   18715   18717   18718   18718   18717   18719
   18715   18717   18719   18715   18717   18721   18719   18717   18721
   18718   18717   18721   18722   18721   18723   18717   18721   18722
   18721   18723   18724   18721   18723   18725   18724   18723   18725
   18723   18725   18726   18726   18725   18727   18723   18725   18727
   18723   18725   18728   18727   18725   18728   18726   18725   18728
   18725   18728   18729   18729   18728   18730   18725   18728   18730
   18725   18728   18731   18730   18728   18731   18729   18728   18731
   18728   18731   18732   18732   18731   18733   18728   18731   18733
   18728   18731   18734   18733   18731   18734   18732   18731   18734
   18731   18734   18735   18735   18734   18736   18731   18734   18736
   18731   18734   18737   18736   18734   18737   18735   18734   18737
   18734   18737   18738   18738   18737   18739   18734   18737   18739
   18734   18737   18740   18739   18737   18740   18738   18737   18740
   18737   18740   18741   18741   18740   18742   18737   18740   18742
   18737   18740   18743   18742   18740   18743   18741   18740   18743
   18740   18743   18744   18744   18743   18745   18740   18743   18745
   18740   18743   18746   18745   18743   18746   18744   18743   18746
   18743   18746   18747   18747   18746   18748   18743   18746   18748
   18743   18746   18749   18748   18746   18749   18747   18746   18749
   18746   18749   18750   18750   18749   18751   18746   18749   18751
   18746   18749   18752   18751   18749   18752   18750   18749   18752
   18749   18752   18753   18753   18752   18754   18749   18752   18754
   18749   18752   18755   18754   18752   18755   18753   18752   18755
   18752   18755   18756   18756   18755   18757   18752   18755   18757
   18752   18755   18758   18757   18755   18758   18756   18755   18758
   18755   18758   18759   18759   18758   18760   18755   18758   18760
   18755   18758   18761   18760   18758   18761   18759   18758   18761
   18758   18761   18762   18762   18761   18764   18762   18761   18763
   18758   18761   18763   18763   18761   18764   18758   18761   18764
   18765   18767   18770   18765   18767   18769   18765   18767   18768
   18767   18770   18773   18767   18770   18772   18767   18770   18771
   18766   18765   18767   18768   18767   18770   18768   18767   18769
   18769   18767   18770   18770   18773   18776   18770   18773   18775
   18770   18773   18774   18771   18770   18773   18771   18770   18772
   18772   18770   18773   18773   18776   18779   18773   18776   18778
   18773   18776   18777   18774   18773   18776   18774   18773   18775
   18775   18773   18776   18776   18779   18782   18776   18779   18781
   18776   18779   18780   18777   18776   18779   18777   18776   18778
   18778   18776   18779   18779   18782   18785   18779   18782   18784
   18779   18782   18783   18780   18779   18782   18780   18779   18781
   18781   18779   18782   18782   18785   18788   18782   18785   18787
   18782   18785   18786   18783   18782   18785   18783   18782   18784
   18784   18782   18785   18785   18788   18791   18785   18788   18790
   18785   18788   18789   18786   18785   18788   18786   18785   18787
   18787   18785   18788   18788   18791   18794   18788   18791   18793
   18788   18791   18792   18789   18788   18791   18789   18788   18790
   18790   18788   18791   18791   18794   18797   18791   18794   18796
   18791   18794   18795   18792   18791   18794   18792   18791   18793
   18793   18791   18794   18794   18797   18800   18794   18797   18799
   18794   18797   18798   18795   18794   18797   18795   18794   18796
   18796   18794   18797   18797   18800   18803   18797   18800   18802
   18797   18800   18801   18798   18797   18800   18798   18797   18799
   18799   18797   18800   18800   18803   18806   18800   18803   18805
   18800   18803   18804   18801   18800   18803   18801   18800   18802
   18802   18800   18803   18803   18806   18809   18803   18806   18808
   18803   18806   18807   18804   18803   18806   18804   18803   18805
   18805   18803   18806   18806   18809   18812   18806   18809   18811
   18806   18809   18810   18807   18806   18809   18807   18806   18808
   18808   18806   18809   18810   18809   18812   18810   18809   18811
   18811   18809   18812   18813   18817   18820   18813   18817   18819
   18813   18817   18818   18814   18813   18817   18814   18813   18816
   18814   18813   18815   18815   18813   18817   18815   18813   18816
   18816   18813   18817   18817   18820   18827   18817   18820   18822
   18817   18820   18821   18818   18817   18820   18818   18817   18819
   18819   18817   18820   18820   18827   18823   18821   18820   18827
   18821   18820   18822   18822   18820   18827   18823   18826   18828
   18824   18823   18825   18825   18823   18826   18824   18823   18826
   18825   18823   18827   18824   18823   18827   18826   18823   18827
   18828   18831   18833   18828   18831   18839   18828   18831   18832
   18826   18828   18829   18829   18828   18831   18829   18828   18830
   18826   18828   18830   18830   18828   18831   18831   18839   18842
   18831   18839   18841   18831   18839   18840   18831   18833   18834
   18826   18828   18831   18832   18831   18833   18832   18831   18839
   18833   18834   18835   18833   18834   18836   18834   18836   18848
   18834   18836   18838   18834   18836   18837   18836   18848   18851
   18836   18848   18850   18836   18848   18849   18835   18834   18836
   18837   18836   18848   18837   18836   18838   18838   18836   18848
   18839   18842   18843   18833   18831   18839   18840   18839   18842
   18840   18839   18841   18841   18839   18842   18842   18843   18844
   18842   18843   18845   18843   18845   18895   18843   18845   18847
   18843   18845   18846   18845   18895   18898   18845   18895   18897
   18845   18895   18896   18844   18843   18845   18846   18845   18895
   18846   18845   18847   18847   18845   18895   18848   18851   18854
   18848   18851   18853   18848   18851   18852   18849   18848   18851
   18849   18848   18850   18850   18848   18851   18851   18854   18857
   18851   18854   18856   18851   18854   18855   18852   18851   18854
   18852   18851   18853   18853   18851   18854   18854   18857   18860
   18854   18857   18859   18854   18857   18858   18855   18854   18857
   18855   18854   18856   18856   18854   18857   18857   18860   18863
   18857   18860   18862   18857   18860   18861   18858   18857   18860
   18858   18857   18859   18859   18857   18860   18860   18863   18866
   18860   18863   18865   18860   18863   18864   18861   18860   18863
   18861   18860   18862   18862   18860   18863   18863   18866   18868
   18863   18866   18867   18864   18863   18866   18864   18863   18865
   18865   18863   18866   18866   18868   18870   18866   18868   18869
   18867   18866   18868   18868   18870   18873   18868   18870   18872
   18868   18870   18871   18869   18868   18870   18870   18873   18876
   18870   18873   18875   18870   18873   18874   18871   18870   18873
   18871   18870   18872   18872   18870   18873   18873   18876   18879
   18873   18876   18878   18873   18876   18877   18874   18873   18876
   18874   18873   18875   18875   18873   18876   18876   18879   18882
   18876   18879   18881   18876   18879   18880   18877   18876   18879
   18877   18876   18878   18878   18876   18879   18879   18882   18885
   18879   18882   18884   18879   18882   18883   18880   18879   18882
   18880   18879   18881   18881   18879   18882   18882   18885   18888
   18882   18885   18887   18882   18885   18886   18883   18882   18885
   18883   18882   18884   18884   18882   18885   18885   18888   18891
   18885   18888   18890   18885   18888   18889   18886   18885   18888
   18886   18885   18887   18887   18885   18888   18888   18891   18894
   18888   18891   18893   18888   18891   18892   18889   18888   18891
   18889   18888   18890   18890   18888   18891   18892   18891   18894
   18892   18891   18893   18893   18891   18894   18895   18898   18901
   18895   18898   18900   18895   18898   18899   18896   18895   18898
   18896   18895   18897   18897   18895   18898   18898   18901   18904
   18898   18901   18903   18898   18901   18902   18899   18898   18901
   18899   18898   18900   18900   18898   18901   18901   18904   18907
   18901   18904   18906   18901   18904   18905   18902   18901   18904
   18902   18901   18903   18903   18901   18904   18904   18907   18910
   18904   18907   18909   18904   18907   18908   18905   18904   18907
   18905   18904   18906   18906   18904   18907   18907   18910   18913
   18907   18910   18912   18907   18910   18911   18908   18907   18910
   18908   18907   18909   18909   18907   18910   18910   18913   18916
   18910   18913   18915   18910   18913   18914   18911   18910   18913
   18911   18910   18912   18912   18910   18913   18913   18916   18919
   18913   18916   18918   18913   18916   18917   18914   18913   18916
   18914   18913   18915   18915   18913   18916   18916   18919   18922
   18916   18919   18921   18916   18919   18920   18917   18916   18919
   18917   18916   18918   18918   18916   18919   18919   18922   18925
   18919   18922   18924   18919   18922   18923   18920   18919   18922
   18920   18919   18921   18921   18919   18922   18922   18925   18928
   18922   18925   18927   18922   18925   18926   18923   18922   18925
   18923   18922   18924   18924   18922   18925   18925   18928   18931
   18925   18928   18930   18925   18928   18929   18926   18925   18928
   18926   18925   18927   18927   18925   18928   18928   18931   18934
   18928   18931   18933   18928   18931   18932   18929   18928   18931
   18929   18928   18930   18930   18928   18931   18931   18934   18937
   18931   18934   18936   18931   18934   18935   18932   18931   18934
   18932   18931   18933   18933   18931   18934   18935   18934   18937
   18935   18934   18936   18936   18934   18937   18938   18950   18953
   18938   18950   18952   18938   18950   18951   18938   18946   18949
   18938   18946   18948   18938   18946   18947   18938   18942   18945
   18938   18942   18944   18938   18942   18943   18938   18939   18954
   18938   18939   18941   18938   18939   18940   18939   18954   18960
   18939   18954   18956   18939   18954   18955   18940   18939   18954
   18940   18939   18941   18941   18939   18954   18939   18938   18942
   18942   18938   18950   18942   18938   18946   18943   18942   18945
   18943   18942   18944   18944   18942   18945   18939   18938   18946
   18946   18938   18950   18947   18946   18949   18947   18946   18948
   18948   18946   18949   18939   18938   18950   18951   18950   18953
   18951   18950   18952   18952   18950   18953   18954   18960   18957
   18955   18954   18960   18955   18954   18956   18956   18954   18960
   18958   18957   18959   18959   18957   18960   18958   18957   18960
   18960   18957   18961   18961   18962   18965   18961   18962   18964
   18961   18962   18963   18959   18957   18961   18958   18957   18961
   18962   18965   18967   18962   18965   18973   18962   18965   18966
   18957   18961   18962   18963   18962   18965   18963   18962   18964
   18964   18962   18965   18965   18973   18976   18965   18973   18975
   18965   18973   18974   18965   18967   18968   18966   18965   18967
   18966   18965   18973   18967   18968   18969   18967   18968   18970
   18968   18970   18982   18968   18970   18972   18968   18970   18971
   18970   18982   18985   18970   18982   18984   18970   18982   18983
   18969   18968   18970   18971   18970   18982   18971   18970   18972
   18972   18970   18982   18973   18976   18977   18967   18965   18973
   18974   18973   18976   18974   18973   18975   18975   18973   18976
   18976   18977   18978   18976   18977   18979   18977   18979   19029
   18977   18979   18981   18977   18979   18980   18979   19029   19032
   18979   19029   19031   18979   19029   19030   18978   18977   18979
   18980   18979   19029   18980   18979   18981   18981   18979   19029
   18982   18985   18988   18982   18985   18987   18982   18985   18986
   18983   18982   18985   18983   18982   18984   18984   18982   18985
   18985   18988   18991   18985   18988   18990   18985   18988   18989
   18986   18985   18988   18986   18985   18987   18987   18985   18988
   18988   18991   18994   18988   18991   18993   18988   18991   18992
   18989   18988   18991   18989   18988   18990   18990   18988   18991
   18991   18994   18997   18991   18994   18996   18991   18994   18995
   18992   18991   18994   18992   18991   18993   18993   18991   18994
   18994   18997   19000   18994   18997   18999   18994   18997   18998
   18995   18994   18997   18995   18994   18996   18996   18994   18997
   18997   19000   19002   18997   19000   19001   18998   18997   19000
   18998   18997   18999   18999   18997   19000   19000   19002   19004
   19000   19002   19003   19001   19000   19002   19002   19004   19007
   19002   19004   19006   19002   19004   19005   19003   19002   19004
   19004   19007   19010   19004   19007   19009   19004   19007   19008
   19005   19004   19007   19005   19004   19006   19006   19004   19007
   19007   19010   19013   19007   19010   19012   19007   19010   19011
   19008   19007   19010   19008   19007   19009   19009   19007   19010
   19010   19013   19016   19010   19013   19015   19010   19013   19014
   19011   19010   19013   19011   19010   19012   19012   19010   19013
   19013   19016   19019   19013   19016   19018   19013   19016   19017
   19014   19013   19016   19014   19013   19015   19015   19013   19016
   19016   19019   19022   19016   19019   19021   19016   19019   19020
   19017   19016   19019   19017   19016   19018   19018   19016   19019
   19019   19022   19025   19019   19022   19024   19019   19022   19023
   19020   19019   19022   19020   19019   19021   19021   19019   19022
   19022   19025   19028   19022   19025   19027   19022   19025   19026
   19023   19022   19025   19023   19022   19024   19024   19022   19025
   19026   19025   19028   19026   19025   19027   19027   19025   19028
   19029   19032   19035   19029   19032   19034   19029   19032   19033
   19030   19029   19032   19030   19029   19031   19031   19029   19032
   19032   19035   19038   19032   19035   19037   19032   19035   19036
   19033   19032   19035   19033   19032   19034   19034   19032   19035
   19035   19038   19041   19035   19038   19040   19035   19038   19039
   19036   19035   19038   19036   19035   19037   19037   19035   19038
   19038   19041   19044   19038   19041   19043   19038   19041   19042
   19039   19038   19041   19039   19038   19040   19040   19038   19041
   19041   19044   19047   19041   19044   19046   19041   19044   19045
   19042   19041   19044   19042   19041   19043   19043   19041   19044
   19044   19047   19050   19044   19047   19049   19044   19047   19048
   19045   19044   19047   19045   19044   19046   19046   19044   19047
   19047   19050   19053   19047   19050   19052   19047   19050   19051
   19048   19047   19050   19048   19047   19049   19049   19047   19050
   19050   19053   19056   19050   19053   19055   19050   19053   19054
   19051   19050   19053   19051   19050   19052   19052   19050   19053
   19053   19056   19059   19053   19056   19058   19053   19056   19057
   19054   19053   19056   19054   19053   19055   19055   19053   19056
   19056   19059   19062   19056   19059   19061   19056   19059   19060
   19057   19056   19059   19057   19056   19058   19058   19056   19059
   19059   19062   19065   19059   19062   19064   19059   19062   19063
   19060   19059   19062   19060   19059   19061   19061   19059   19062
   19062   19065   19068   19062   19065   19067   19062   19065   19066
   19063   19062   19065   19063   19062   19064   19064   19062   19065
   19065   19068   19071   19065   19068   19070   19065   19068   19069
   19066   19065   19068   19066   19065   19067   19067   19065   19068
   19069   19068   19071   19069   19068   19070   19070   19068   19071
   19072   19084   19087   19072   19084   19086   19072   19084   19085
   19072   19080   19083   19072   19080   19082   19072   19080   19081
   19072   19076   19079   19072   19076   19078   19072   19076   19077
   19072   19073   19088   19072   19073   19075   19072   19073   19074
   19073   19088   19094   19073   19088   19090   19073   19088   19089
   19074   19073   19088   19074   19073   19075   19075   19073   19088
   19073   19072   19076   19076   19072   19084   19076   19072   19080
   19077   19076   19079   19077   19076   19078   19078   19076   19079
   19073   19072   19080   19080   19072   19084   19081   19080   19083
   19081   19080   19082   19082   19080   19083   19073   19072   19084
   19085   19084   19087   19085   19084   19086   19086   19084   19087
   19088   19094   19091   19089   19088   19094   19089   19088   19090
   19090   19088   19094   19092   19091   19093   19093   19091   19094
   19092   19091   19094   19094   19091   19095   19095   19096   19099
   19095   19096   19098   19095   19096   19097   19093   19091   19095
   19092   19091   19095   19096   19099   19101   19096   19099   19107
   19096   19099   19100   19091   19095   19096   19097   19096   19099
   19097   19096   19098   19098   19096   19099   19099   19107   19110
   19099   19107   19109   19099   19107   19108   19099   19101   19102
   19100   19099   19101   19100   19099   19107   19101   19102   19103
   19101   19102   19104   19102   19104   19116   19102   19104   19106
   19102   19104   19105   19104   19116   19119   19104   19116   19118
   19104   19116   19117   19103   19102   19104   19105   19104   19116
   19105   19104   19106   19106   19104   19116   19107   19110   19111
   19101   19099   19107   19108   19107   19110   19108   19107   19109
   19109   19107   19110   19110   19111   19112   19110   19111   19113
   19111   19113   19163   19111   19113   19115   19111   19113   19114
   19113   19163   19166   19113   19163   19165   19113   19163   19164
   19112   19111   19113   19114   19113   19163   19114   19113   19115
   19115   19113   19163   19116   19119   19122   19116   19119   19121
   19116   19119   19120   19117   19116   19119   19117   19116   19118
   19118   19116   19119   19119   19122   19125   19119   19122   19124
   19119   19122   19123   19120   19119   19122   19120   19119   19121
   19121   19119   19122   19122   19125   19128   19122   19125   19127
   19122   19125   19126   19123   19122   19125   19123   19122   19124
   19124   19122   19125   19125   19128   19131   19125   19128   19130
   19125   19128   19129   19126   19125   19128   19126   19125   19127
   19127   19125   19128   19128   19131   19134   19128   19131   19133
   19128   19131   19132   19129   19128   19131   19129   19128   19130
   19130   19128   19131   19131   19134   19136   19131   19134   19135
   19132   19131   19134   19132   19131   19133   19133   19131   19134
   19134   19136   19138   19134   19136   19137   19135   19134   19136
   19136   19138   19141   19136   19138   19140   19136   19138   19139
   19137   19136   19138   19138   19141   19144   19138   19141   19143
   19138   19141   19142   19139   19138   19141   19139   19138   19140
   19140   19138   19141   19141   19144   19147   19141   19144   19146
   19141   19144   19145   19142   19141   19144   19142   19141   19143
   19143   19141   19144   19144   19147   19150   19144   19147   19149
   19144   19147   19148   19145   19144   19147   19145   19144   19146
   19146   19144   19147   19147   19150   19153   19147   19150   19152
   19147   19150   19151   19148   19147   19150   19148   19147   19149
   19149   19147   19150   19150   19153   19156   19150   19153   19155
   19150   19153   19154   19151   19150   19153   19151   19150   19152
   19152   19150   19153   19153   19156   19159   19153   19156   19158
   19153   19156   19157   19154   19153   19156   19154   19153   19155
   19155   19153   19156   19156   19159   19162   19156   19159   19161
   19156   19159   19160   19157   19156   19159   19157   19156   19158
   19158   19156   19159   19160   19159   19162   19160   19159   19161
   19161   19159   19162   19163   19166   19169   19163   19166   19168
   19163   19166   19167   19164   19163   19166   19164   19163   19165
   19165   19163   19166   19166   19169   19172   19166   19169   19171
   19166   19169   19170   19167   19166   19169   19167   19166   19168
   19168   19166   19169   19169   19172   19175   19169   19172   19174
   19169   19172   19173   19170   19169   19172   19170   19169   19171
   19171   19169   19172   19172   19175   19178   19172   19175   19177
   19172   19175   19176   19173   19172   19175   19173   19172   19174
   19174   19172   19175   19175   19178   19181   19175   19178   19180
   19175   19178   19179   19176   19175   19178   19176   19175   19177
   19177   19175   19178   19178   19181   19184   19178   19181   19183
   19178   19181   19182   19179   19178   19181   19179   19178   19180
   19180   19178   19181   19181   19184   19187   19181   19184   19186
   19181   19184   19185   19182   19181   19184   19182   19181   19183
   19183   19181   19184   19184   19187   19190   19184   19187   19189
   19184   19187   19188   19185   19184   19187   19185   19184   19186
   19186   19184   19187   19187   19190   19193   19187   19190   19192
   19187   19190   19191   19188   19187   19190   19188   19187   19189
   19189   19187   19190   19190   19193   19196   19190   19193   19195
   19190   19193   19194   19191   19190   19193   19191   19190   19192
   19192   19190   19193   19193   19196   19199   19193   19196   19198
   19193   19196   19197   19194   19193   19196   19194   19193   19195
   19195   19193   19196   19196   19199   19202   19196   19199   19201
   19196   19199   19200   19197   19196   19199   19197   19196   19198
   19198   19196   19199   19199   19202   19205   19199   19202   19204
   19199   19202   19203   19200   19199   19202   19200   19199   19201
   19201   19199   19202   19203   19202   19205   19203   19202   19204
   19204   19202   19205   19206   19210   19213   19206   19210   19212
   19206   19210   19211   19207   19206   19210   19207   19206   19209
   19207   19206   19208   19208   19206   19210   19208   19206   19209
   19209   19206   19210   19210   19213   19220   19210   19213   19215
   19210   19213   19214   19211   19210   19213   19211   19210   19212
   19212   19210   19213   19213   19220   19216   19214   19213   19220
   19214   19213   19215   19215   19213   19220   19216   19219   19221
   19217   19216   19218   19218   19216   19219   19217   19216   19219
   19218   19216   19220   19217   19216   19220   19219   19216   19220
   19221   19224   19226   19221   19224   19232   19221   19224   19225
   19219   19221   19222   19222   19221   19224   19222   19221   19223
   19219   19221   19223   19223   19221   19224   19224   19232   19235
   19224   19232   19234   19224   19232   19233   19224   19226   19227
   19219   19221   19224   19225   19224   19226   19225   19224   19232
   19226   19227   19228   19226   19227   19229   19227   19229   19241
   19227   19229   19231   19227   19229   19230   19229   19241   19244
   19229   19241   19243   19229   19241   19242   19228   19227   19229
   19230   19229   19241   19230   19229   19231   19231   19229   19241
   19232   19235   19236   19226   19224   19232   19233   19232   19235
   19233   19232   19234   19234   19232   19235   19235   19236   19237
   19235   19236   19238   19236   19238   19288   19236   19238   19240
   19236   19238   19239   19238   19288   19291   19238   19288   19290
   19238   19288   19289   19237   19236   19238   19239   19238   19288
   19239   19238   19240   19240   19238   19288   19241   19244   19247
   19241   19244   19246   19241   19244   19245   19242   19241   19244
   19242   19241   19243   19243   19241   19244   19244   19247   19250
   19244   19247   19249   19244   19247   19248   19245   19244   19247
   19245   19244   19246   19246   19244   19247   19247   19250   19253
   19247   19250   19252   19247   19250   19251   19248   19247   19250
   19248   19247   19249   19249   19247   19250   19250   19253   19256
   19250   19253   19255   19250   19253   19254   19251   19250   19253
   19251   19250   19252   19252   19250   19253   19253   19256   19259
   19253   19256   19258   19253   19256   19257   19254   19253   19256
   19254   19253   19255   19255   19253   19256   19256   19259   19261
   19256   19259   19260   19257   19256   19259   19257   19256   19258
   19258   19256   19259   19259   19261   19263   19259   19261   19262
   19260   19259   19261   19261   19263   19266   19261   19263   19265
   19261   19263   19264   19262   19261   19263   19263   19266   19269
   19263   19266   19268   19263   19266   19267   19264   19263   19266
   19264   19263   19265   19265   19263   19266   19266   19269   19272
   19266   19269   19271   19266   19269   19270   19267   19266   19269
   19267   19266   19268   19268   19266   19269   19269   19272   19275
   19269   19272   19274   19269   19272   19273   19270   19269   19272
   19270   19269   19271   19271   19269   19272   19272   19275   19278
   19272   19275   19277   19272   19275   19276   19273   19272   19275
   19273   19272   19274   19274   19272   19275   19275   19278   19281
   19275   19278   19280   19275   19278   19279   19276   19275   19278
   19276   19275   19277   19277   19275   19278   19278   19281   19284
   19278   19281   19283   19278   19281   19282   19279   19278   19281
   19279   19278   19280   19280   19278   19281   19281   19284   19287
   19281   19284   19286   19281   19284   19285   19282   19281   19284
   19282   19281   19283   19283   19281   19284   19285   19284   19287
   19285   19284   19286   19286   19284   19287   19288   19291   19294
   19288   19291   19293   19288   19291   19292   19289   19288   19291
   19289   19288   19290   19290   19288   19291   19291   19294   19297
   19291   19294   19296   19291   19294   19295   19292   19291   19294
   19292   19291   19293   19293   19291   19294   19294   19297   19300
   19294   19297   19299   19294   19297   19298   19295   19294   19297
   19295   19294   19296   19296   19294   19297   19297   19300   19303
   19297   19300   19302   19297   19300   19301   19298   19297   19300
   19298   19297   19299   19299   19297   19300   19300   19303   19306
   19300   19303   19305   19300   19303   19304   19301   19300   19303
   19301   19300   19302   19302   19300   19303   19303   19306   19309
   19303   19306   19308   19303   19306   19307   19304   19303   19306
   19304   19303   19305   19305   19303   19306   19306   19309   19312
   19306   19309   19311   19306   19309   19310   19307   19306   19309
   19307   19306   19308   19308   19306   19309   19309   19312   19315
   19309   19312   19314   19309   19312   19313   19310   19309   19312
   19310   19309   19311   19311   19309   19312   19312   19315   19318
   19312   19315   19317   19312   19315   19316   19313   19312   19315
   19313   19312   19314   19314   19312   19315   19315   19318   19321
   19315   19318   19320   19315   19318   19319   19316   19315   19318
   19316   19315   19317   19317   19315   19318   19318   19321   19324
   19318   19321   19323   19318   19321   19322   19319   19318   19321
   19319   19318   19320   19320   19318   19321   19321   19324   19327
   19321   19324   19326   19321   19324   19325   19322   19321   19324
   19322   19321   19323   19323   19321   19324   19324   19327   19330
   19324   19327   19329   19324   19327   19328   19325   19324   19327
   19325   19324   19326   19326   19324   19327   19328   19327   19330
   19328   19327   19329   19329   19327   19330   19331   19343   19346
   19331   19343   19345   19331   19343   19344   19331   19339   19342
   19331   19339   19341   19331   19339   19340   19331   19335   19338
   19331   19335   19337   19331   19335   19336   19331   19332   19347
   19331   19332   19334   19331   19332   19333   19332   19347   19353
   19332   19347   19349   19332   19347   19348   19333   19332   19347
   19333   19332   19334   19334   19332   19347   19332   19331   19335
   19335   19331   19343   19335   19331   19339   19336   19335   19338
   19336   19335   19337   19337   19335   19338   19332   19331   19339
   19339   19331   19343   19340   19339   19342   19340   19339   19341
   19341   19339   19342   19332   19331   19343   19344   19343   19346
   19344   19343   19345   19345   19343   19346   19347   19353   19350
   19348   19347   19353   19348   19347   19349   19349   19347   19353
   19351   19350   19352   19352   19350   19353   19351   19350   19353
   19353   19350   19354   19354   19355   19358   19354   19355   19357
   19354   19355   19356   19352   19350   19354   19351   19350   19354
   19355   19358   19360   19355   19358   19366   19355   19358   19359
   19350   19354   19355   19356   19355   19358   19356   19355   19357
   19357   19355   19358   19358   19366   19369   19358   19366   19368
   19358   19366   19367   19358   19360   19361   19359   19358   19360
   19359   19358   19366   19360   19361   19362   19360   19361   19363
   19361   19363   19375   19361   19363   19365   19361   19363   19364
   19363   19375   19378   19363   19375   19377   19363   19375   19376
   19362   19361   19363   19364   19363   19375   19364   19363   19365
   19365   19363   19375   19366   19369   19370   19360   19358   19366
   19367   19366   19369   19367   19366   19368   19368   19366   19369
   19369   19370   19371   19369   19370   19372   19370   19372   19422
   19370   19372   19374   19370   19372   19373   19372   19422   19425
   19372   19422   19424   19372   19422   19423   19371   19370   19372
   19373   19372   19422   19373   19372   19374   19374   19372   19422
   19375   19378   19381   19375   19378   19380   19375   19378   19379
   19376   19375   19378   19376   19375   19377   19377   19375   19378
   19378   19381   19384   19378   19381   19383   19378   19381   19382
   19379   19378   19381   19379   19378   19380   19380   19378   19381
   19381   19384   19387   19381   19384   19386   19381   19384   19385
   19382   19381   19384   19382   19381   19383   19383   19381   19384
   19384   19387   19390   19384   19387   19389   19384   19387   19388
   19385   19384   19387   19385   19384   19386   19386   19384   19387
   19387   19390   19393   19387   19390   19392   19387   19390   19391
   19388   19387   19390   19388   19387   19389   19389   19387   19390
   19390   19393   19395   19390   19393   19394   19391   19390   19393
   19391   19390   19392   19392   19390   19393   19393   19395   19397
   19393   19395   19396   19394   19393   19395   19395   19397   19400
   19395   19397   19399   19395   19397   19398   19396   19395   19397
   19397   19400   19403   19397   19400   19402   19397   19400   19401
   19398   19397   19400   19398   19397   19399   19399   19397   19400
   19400   19403   19406   19400   19403   19405   19400   19403   19404
   19401   19400   19403   19401   19400   19402   19402   19400   19403
   19403   19406   19409   19403   19406   19408   19403   19406   19407
   19404   19403   19406   19404   19403   19405   19405   19403   19406
   19406   19409   19412   19406   19409   19411   19406   19409   19410
   19407   19406   19409   19407   19406   19408   19408   19406   19409
   19409   19412   19415   19409   19412   19414   19409   19412   19413
   19410   19409   19412   19410   19409   19411   19411   19409   19412
   19412   19415   19418   19412   19415   19417   19412   19415   19416
   19413   19412   19415   19413   19412   19414   19414   19412   19415
   19415   19418   19421   19415   19418   19420   19415   19418   19419
   19416   19415   19418   19416   19415   19417   19417   19415   19418
   19419   19418   19421   19419   19418   19420   19420   19418   19421
   19422   19425   19428   19422   19425   19427   19422   19425   19426
   19423   19422   19425   19423   19422   19424   19424   19422   19425
   19425   19428   19431   19425   19428   19430   19425   19428   19429
   19426   19425   19428   19426   19425   19427   19427   19425   19428
   19428   19431   19434   19428   19431   19433   19428   19431   19432
   19429   19428   19431   19429   19428   19430   19430   19428   19431
   19431   19434   19437   19431   19434   19436   19431   19434   19435
   19432   19431   19434   19432   19431   19433   19433   19431   19434
   19434   19437   19440   19434   19437   19439   19434   19437   19438
   19435   19434   19437   19435   19434   19436   19436   19434   19437
   19437   19440   19443   19437   19440   19442   19437   19440   19441
   19438   19437   19440   19438   19437   19439   19439   19437   19440
   19440   19443   19446   19440   19443   19445   19440   19443   19444
   19441   19440   19443   19441   19440   19442   19442   19440   19443
   19443   19446   19449   19443   19446   19448   19443   19446   19447
   19444   19443   19446   19444   19443   19445   19445   19443   19446
   19446   19449   19452   19446   19449   19451   19446   19449   19450
   19447   19446   19449   19447   19446   19448   19448   19446   19449
   19449   19452   19455   19449   19452   19454   19449   19452   19453
   19450   19449   19452   19450   19449   19451   19451   19449   19452
   19452   19455   19458   19452   19455   19457   19452   19455   19456
   19453   19452   19455   19453   19452   19454   19454   19452   19455
   19455   19458   19461   19455   19458   19460   19455   19458   19459
   19456   19455   19458   19456   19455   19457   19457   19455   19458
   19458   19461   19464   19458   19461   19463   19458   19461   19462
   19459   19458   19461   19459   19458   19460   19460   19458   19461
   19462   19461   19464   19462   19461   19463   19463   19461   19464
   19465   19469   19472   19465   19469   19471   19465   19469   19470
   19466   19465   19469   19466   19465   19468   19466   19465   19467
   19467   19465   19469   19467   19465   19468   19468   19465   19469
   19469   19472   19479   19469   19472   19474   19469   19472   19473
   19470   19469   19472   19470   19469   19471   19471   19469   19472
   19472   19479   19475   19473   19472   19479   19473   19472   19474
   19474   19472   19479   19475   19478   19480   19476   19475   19477
   19477   19475   19478   19476   19475   19478   19477   19475   19479
   19476   19475   19479   19478   19475   19479   19480   19483   19485
   19480   19483   19491   19480   19483   19484   19478   19480   19481
   19481   19480   19483   19481   19480   19482   19478   19480   19482
   19482   19480   19483   19483   19491   19494   19483   19491   19493
   19483   19491   19492   19483   19485   19486   19478   19480   19483
   19484   19483   19485   19484   19483   19491   19485   19486   19487
   19485   19486   19488   19486   19488   19500   19486   19488   19490
   19486   19488   19489   19488   19500   19503   19488   19500   19502
   19488   19500   19501   19487   19486   19488   19489   19488   19500
   19489   19488   19490   19490   19488   19500   19491   19494   19495
   19485   19483   19491   19492   19491   19494   19492   19491   19493
   19493   19491   19494   19494   19495   19496   19494   19495   19497
   19495   19497   19547   19495   19497   19499   19495   19497   19498
   19497   19547   19550   19497   19547   19549   19497   19547   19548
   19496   19495   19497   19498   19497   19547   19498   19497   19499
   19499   19497   19547   19500   19503   19506   19500   19503   19505
   19500   19503   19504   19501   19500   19503   19501   19500   19502
   19502   19500   19503   19503   19506   19509   19503   19506   19508
   19503   19506   19507   19504   19503   19506   19504   19503   19505
   19505   19503   19506   19506   19509   19512   19506   19509   19511
   19506   19509   19510   19507   19506   19509   19507   19506   19508
   19508   19506   19509   19509   19512   19515   19509   19512   19514
   19509   19512   19513   19510   19509   19512   19510   19509   19511
   19511   19509   19512   19512   19515   19518   19512   19515   19517
   19512   19515   19516   19513   19512   19515   19513   19512   19514
   19514   19512   19515   19515   19518   19520   19515   19518   19519
   19516   19515   19518   19516   19515   19517   19517   19515   19518
   19518   19520   19522   19518   19520   19521   19519   19518   19520
   19520   19522   19525   19520   19522   19524   19520   19522   19523
   19521   19520   19522   19522   19525   19528   19522   19525   19527
   19522   19525   19526   19523   19522   19525   19523   19522   19524
   19524   19522   19525   19525   19528   19531   19525   19528   19530
   19525   19528   19529   19526   19525   19528   19526   19525   19527
   19527   19525   19528   19528   19531   19534   19528   19531   19533
   19528   19531   19532   19529   19528   19531   19529   19528   19530
   19530   19528   19531   19531   19534   19537   19531   19534   19536
   19531   19534   19535   19532   19531   19534   19532   19531   19533
   19533   19531   19534   19534   19537   19540   19534   19537   19539
   19534   19537   19538   19535   19534   19537   19535   19534   19536
   19536   19534   19537   19537   19540   19543   19537   19540   19542
   19537   19540   19541   19538   19537   19540   19538   19537   19539
   19539   19537   19540   19540   19543   19546   19540   19543   19545
   19540   19543   19544   19541   19540   19543   19541   19540   19542
   19542   19540   19543   19544   19543   19546   19544   19543   19545
   19545   19543   19546   19547   19550   19553   19547   19550   19552
   19547   19550   19551   19548   19547   19550   19548   19547   19549
   19549   19547   19550   19550   19553   19556   19550   19553   19555
   19550   19553   19554   19551   19550   19553   19551   19550   19552
   19552   19550   19553   19553   19556   19559   19553   19556   19558
   19553   19556   19557   19554   19553   19556   19554   19553   19555
   19555   19553   19556   19556   19559   19562   19556   19559   19561
   19556   19559   19560   19557   19556   19559   19557   19556   19558
   19558   19556   19559   19559   19562   19565   19559   19562   19564
   19559   19562   19563   19560   19559   19562   19560   19559   19561
   19561   19559   19562   19562   19565   19568   19562   19565   19567
   19562   19565   19566   19563   19562   19565   19563   19562   19564
   19564   19562   19565   19565   19568   19571   19565   19568   19570
   19565   19568   19569   19566   19565   19568   19566   19565   19567
   19567   19565   19568   19568   19571   19574   19568   19571   19573
   19568   19571   19572   19569   19568   19571   19569   19568   19570
   19570   19568   19571   19571   19574   19577   19571   19574   19576
   19571   19574   19575   19572   19571   19574   19572   19571   19573
   19573   19571   19574   19574   19577   19580   19574   19577   19579
   19574   19577   19578   19575   19574   19577   19575   19574   19576
   19576   19574   19577   19577   19580   19583   19577   19580   19582
   19577   19580   19581   19578   19577   19580   19578   19577   19579
   19579   19577   19580   19580   19583   19586   19580   19583   19585
   19580   19583   19584   19581   19580   19583   19581   19580   19582
   19582   19580   19583   19583   19586   19589   19583   19586   19588
   19583   19586   19587   19584   19583   19586   19584   19583   19585
   19585   19583   19586   19587   19586   19589   19587   19586   19588
   19588   19586   19589   19590   19594   19597   19590   19594   19596
   19590   19594   19595   19591   19590   19594   19591   19590   19593
   19591   19590   19592   19592   19590   19594   19592   19590   19593
   19593   19590   19594   19594   19597   19604   19594   19597   19599
   19594   19597   19598   19595   19594   19597   19595   19594   19596
   19596   19594   19597   19597   19604   19600   19598   19597   19604
   19598   19597   19599   19599   19597   19604   19600   19603   19605
   19601   19600   19602   19602   19600   19603   19601   19600   19603
   19602   19600   19604   19601   19600   19604   19603   19600   19604
   19605   19608   19610   19605   19608   19616   19605   19608   19609
   19603   19605   19606   19606   19605   19608   19606   19605   19607
   19603   19605   19607   19607   19605   19608   19608   19616   19619
   19608   19616   19618   19608   19616   19617   19608   19610   19611
   19603   19605   19608   19609   19608   19610   19609   19608   19616
   19610   19611   19612   19610   19611   19613   19611   19613   19625
   19611   19613   19615   19611   19613   19614   19613   19625   19628
   19613   19625   19627   19613   19625   19626   19612   19611   19613
   19614   19613   19625   19614   19613   19615   19615   19613   19625
   19616   19619   19620   19610   19608   19616   19617   19616   19619
   19617   19616   19618   19618   19616   19619   19619   19620   19621
   19619   19620   19622   19620   19622   19672   19620   19622   19624
   19620   19622   19623   19622   19672   19675   19622   19672   19674
   19622   19672   19673   19621   19620   19622   19623   19622   19672
   19623   19622   19624   19624   19622   19672   19625   19628   19631
   19625   19628   19630   19625   19628   19629   19626   19625   19628
   19626   19625   19627   19627   19625   19628   19628   19631   19634
   19628   19631   19633   19628   19631   19632   19629   19628   19631
   19629   19628   19630   19630   19628   19631   19631   19634   19637
   19631   19634   19636   19631   19634   19635   19632   19631   19634
   19632   19631   19633   19633   19631   19634   19634   19637   19640
   19634   19637   19639   19634   19637   19638   19635   19634   19637
   19635   19634   19636   19636   19634   19637   19637   19640   19643
   19637   19640   19642   19637   19640   19641   19638   19637   19640
   19638   19637   19639   19639   19637   19640   19640   19643   19645
   19640   19643   19644   19641   19640   19643   19641   19640   19642
   19642   19640   19643   19643   19645   19647   19643   19645   19646
   19644   19643   19645   19645   19647   19650   19645   19647   19649
   19645   19647   19648   19646   19645   19647   19647   19650   19653
   19647   19650   19652   19647   19650   19651   19648   19647   19650
   19648   19647   19649   19649   19647   19650   19650   19653   19656
   19650   19653   19655   19650   19653   19654   19651   19650   19653
   19651   19650   19652   19652   19650   19653   19653   19656   19659
   19653   19656   19658   19653   19656   19657   19654   19653   19656
   19654   19653   19655   19655   19653   19656   19656   19659   19662
   19656   19659   19661   19656   19659   19660   19657   19656   19659
   19657   19656   19658   19658   19656   19659   19659   19662   19665
   19659   19662   19664   19659   19662   19663   19660   19659   19662
   19660   19659   19661   19661   19659   19662   19662   19665   19668
   19662   19665   19667   19662   19665   19666   19663   19662   19665
   19663   19662   19664   19664   19662   19665   19665   19668   19671
   19665   19668   19670   19665   19668   19669   19666   19665   19668
   19666   19665   19667   19667   19665   19668   19669   19668   19671
   19669   19668   19670   19670   19668   19671   19672   19675   19678
   19672   19675   19677   19672   19675   19676   19673   19672   19675
   19673   19672   19674   19674   19672   19675   19675   19678   19681
   19675   19678   19680   19675   19678   19679   19676   19675   19678
   19676   19675   19677   19677   19675   19678   19678   19681   19684
   19678   19681   19683   19678   19681   19682   19679   19678   19681
   19679   19678   19680   19680   19678   19681   19681   19684   19687
   19681   19684   19686   19681   19684   19685   19682   19681   19684
   19682   19681   19683   19683   19681   19684   19684   19687   19690
   19684   19687   19689   19684   19687   19688   19685   19684   19687
   19685   19684   19686   19686   19684   19687   19687   19690   19693
   19687   19690   19692   19687   19690   19691   19688   19687   19690
   19688   19687   19689   19689   19687   19690   19690   19693   19696
   19690   19693   19695   19690   19693   19694   19691   19690   19693
   19691   19690   19692   19692   19690   19693   19693   19696   19699
   19693   19696   19698   19693   19696   19697   19694   19693   19696
   19694   19693   19695   19695   19693   19696   19696   19699   19702
   19696   19699   19701   19696   19699   19700   19697   19696   19699
   19697   19696   19698   19698   19696   19699   19699   19702   19705
   19699   19702   19704   19699   19702   19703   19700   19699   19702
   19700   19699   19701   19701   19699   19702   19702   19705   19708
   19702   19705   19707   19702   19705   19706   19703   19702   19705
   19703   19702   19704   19704   19702   19705   19705   19708   19711
   19705   19708   19710   19705   19708   19709   19706   19705   19708
   19706   19705   19707   19707   19705   19708   19708   19711   19714
   19708   19711   19713   19708   19711   19712   19709   19708   19711
   19709   19708   19710   19710   19708   19711   19712   19711   19714
   19712   19711   19713   19713   19711   19714   19715   19719   19722
   19715   19719   19721   19715   19719   19720   19716   19715   19719
   19716   19715   19718   19716   19715   19717   19717   19715   19719
   19717   19715   19718   19718   19715   19719   19719   19722   19729
   19719   19722   19724   19719   19722   19723   19720   19719   19722
   19720   19719   19721   19721   19719   19722   19722   19729   19725
   19723   19722   19729   19723   19722   19724   19724   19722   19729
   19725   19728   19730   19726   19725   19727   19727   19725   19728
   19726   19725   19728   19727   19725   19729   19726   19725   19729
   19728   19725   19729   19730   19733   19735   19730   19733   19741
   19730   19733   19734   19728   19730   19731   19731   19730   19733
   19731   19730   19732   19728   19730   19732   19732   19730   19733
   19733   19741   19744   19733   19741   19743   19733   19741   19742
   19733   19735   19736   19728   19730   19733   19734   19733   19735
   19734   19733   19741   19735   19736   19737   19735   19736   19738
   19736   19738   19750   19736   19738   19740   19736   19738   19739
   19738   19750   19753   19738   19750   19752   19738   19750   19751
   19737   19736   19738   19739   19738   19750   19739   19738   19740
   19740   19738   19750   19741   19744   19745   19735   19733   19741
   19742   19741   19744   19742   19741   19743   19743   19741   19744
   19744   19745   19746   19744   19745   19747   19745   19747   19797
   19745   19747   19749   19745   19747   19748   19747   19797   19800
   19747   19797   19799   19747   19797   19798   19746   19745   19747
   19748   19747   19797   19748   19747   19749   19749   19747   19797
   19750   19753   19756   19750   19753   19755   19750   19753   19754
   19751   19750   19753   19751   19750   19752   19752   19750   19753
   19753   19756   19759   19753   19756   19758   19753   19756   19757
   19754   19753   19756   19754   19753   19755   19755   19753   19756
   19756   19759   19762   19756   19759   19761   19756   19759   19760
   19757   19756   19759   19757   19756   19758   19758   19756   19759
   19759   19762   19765   19759   19762   19764   19759   19762   19763
   19760   19759   19762   19760   19759   19761   19761   19759   19762
   19762   19765   19768   19762   19765   19767   19762   19765   19766
   19763   19762   19765   19763   19762   19764   19764   19762   19765
   19765   19768   19770   19765   19768   19769   19766   19765   19768
   19766   19765   19767   19767   19765   19768   19768   19770   19772
   19768   19770   19771   19769   19768   19770   19770   19772   19775
   19770   19772   19774   19770   19772   19773   19771   19770   19772
   19772   19775   19778   19772   19775   19777   19772   19775   19776
   19773   19772   19775   19773   19772   19774   19774   19772   19775
   19775   19778   19781   19775   19778   19780   19775   19778   19779
   19776   19775   19778   19776   19775   19777   19777   19775   19778
   19778   19781   19784   19778   19781   19783   19778   19781   19782
   19779   19778   19781   19779   19778   19780   19780   19778   19781
   19781   19784   19787   19781   19784   19786   19781   19784   19785
   19782   19781   19784   19782   19781   19783   19783   19781   19784
   19784   19787   19790   19784   19787   19789   19784   19787   19788
   19785   19784   19787   19785   19784   19786   19786   19784   19787
   19787   19790   19793   19787   19790   19792   19787   19790   19791
   19788   19787   19790   19788   19787   19789   19789   19787   19790
   19790   19793   19796   19790   19793   19795   19790   19793   19794
   19791   19790   19793   19791   19790   19792   19792   19790   19793
   19794   19793   19796   19794   19793   19795   19795   19793   19796
   19797   19800   19803   19797   19800   19802   19797   19800   19801
   19798   19797   19800   19798   19797   19799   19799   19797   19800
   19800   19803   19806   19800   19803   19805   19800   19803   19804
   19801   19800   19803   19801   19800   19802   19802   19800   19803
   19803   19806   19809   19803   19806   19808   19803   19806   19807
   19804   19803   19806   19804   19803   19805   19805   19803   19806
   19806   19809   19812   19806   19809   19811   19806   19809   19810
   19807   19806   19809   19807   19806   19808   19808   19806   19809
   19809   19812   19815   19809   19812   19814   19809   19812   19813
   19810   19809   19812   19810   19809   19811   19811   19809   19812
   19812   19815   19818   19812   19815   19817   19812   19815   19816
   19813   19812   19815   19813   19812   19814   19814   19812   19815
   19815   19818   19821   19815   19818   19820   19815   19818   19819
   19816   19815   19818   19816   19815   19817   19817   19815   19818
   19818   19821   19824   19818   19821   19823   19818   19821   19822
   19819   19818   19821   19819   19818   19820   19820   19818   19821
   19821   19824   19827   19821   19824   19826   19821   19824   19825
   19822   19821   19824   19822   19821   19823   19823   19821   19824
   19824   19827   19830   19824   19827   19829   19824   19827   19828
   19825   19824   19827   19825   19824   19826   19826   19824   19827
   19827   19830   19833   19827   19830   19832   19827   19830   19831
   19828   19827   19830   19828   19827   19829   19829   19827   19830
   19830   19833   19836   19830   19833   19835   19830   19833   19834
   19831   19830   19833   19831   19830   19832   19832   19830   19833
   19833   19836   19839   19833   19836   19838   19833   19836   19837
   19834   19833   19836   19834   19833   19835   19835   19833   19836
   19837   19836   19839   19837   19836   19838   19838   19836   19839
   19840   19849   19852   19840   19849   19851   19840   19849   19850
   19840   19845   19848   19840   19845   19847   19840   19845   19846
   19840   19841   19844   19840   19841   19843   19840   19841   19842
   19842   19841   19844   19842   19841   19843   19843   19841   19844
   19841   19840   19845   19846   19845   19848   19846   19845   19847
   19847   19845   19848   19841   19840   19849   19845   19840   19849
   19850   19849   19852   19850   19849   19851   19851   19849   19852
   19841   19840   19853   19845   19840   19853   19849   19840   19853
   19840   19853   19854   19854   19853   19855   19840   19853   19855
   19840   19853   19856   19855   19853   19856   19854   19853   19856
   19853   19856   19857   19857   19856   19858   19853   19856   19858
   19856   19863   19859   19860   19859   19861   19861   19859   19862
   19860   19859   19862   19862   19859   19863   19861   19859   19863
   19860   19859   19863   19853   19856   19863   19858   19856   19863
   19857   19856   19863   19864   19869   19867   19859   19862   19864
   19862   19864   19865   19865   19864   19866   19862   19864   19866
   19867   19919   19920   19867   19919   19921   19868   19867   19919
   19869   19867   19919   19868   19867   19869   19862   19864   19869
   19866   19864   19869   19865   19864   19869   19867   19869   19870
   19864   19869   19870   19871   19875   19877   19871   19873   19874
   19867   19869   19871   19864   19869   19871   19870   19869   19871
   19869   19871   19872   19872   19871   19873   19869   19871   19873
   19869   19871   19875   19873   19871   19875   19872   19871   19875
   19876   19875   19877   19871   19875   19876   19875   19877   19878
   19875   19877   19879   19878   19877   19879   19877   19879   19880
   19880   19879   19881   19877   19879   19881   19877   19879   19882
   19881   19879   19882   19880   19879   19882   19879   19882   19883
   19883   19882   19884   19879   19882   19884   19879   19882   19885
   19884   19882   19885   19883   19882   19885   19882   19885   19886
   19886   19885   19887   19882   19885   19887   19882   19885   19888
   19887   19885   19888   19886   19885   19888   19885   19888   19889
   19889   19888   19890   19885   19888   19890   19885   19888   19891
   19890   19888   19891   19889   19888   19891   19888   19891   19892
   19892   19891   19893   19888   19891   19893   19888   19891   19894
   19893   19891   19894   19892   19891   19894   19891   19894   19895
   19895   19894   19896   19891   19894   19896   19891   19894   19897
   19896   19894   19897   19895   19894   19897   19894   19897   19898
   19898   19897   19899   19894   19897   19899   19894   19897   19900
   19899   19897   19900   19898   19897   19900   19897   19900   19901
   19901   19900   19902   19897   19900   19902   19897   19900   19903
   19902   19900   19903   19901   19900   19903   19900   19903   19904
   19904   19903   19905   19900   19903   19905   19900   19903   19906
   19905   19903   19906   19904   19903   19906   19903   19906   19907
   19907   19906   19908   19903   19906   19908   19903   19906   19909
   19908   19906   19909   19907   19906   19909   19906   19909   19910
   19910   19909   19911   19906   19909   19911   19906   19909   19912
   19911   19909   19912   19910   19909   19912   19909   19912   19913
   19913   19912   19914   19909   19912   19914   19909   19912   19915
   19914   19912   19915   19913   19912   19915   19912   19915   19916
   19916   19915   19918   19916   19915   19917   19912   19915   19917
   19917   19915   19918   19912   19915   19918   19919   19921   19924
   19919   19921   19923   19919   19921   19922   19921   19924   19927
   19921   19924   19926   19921   19924   19925   19920   19919   19921
   19922   19921   19924   19922   19921   19923   19923   19921   19924
   19924   19927   19930   19924   19927   19929   19924   19927   19928
   19925   19924   19927   19925   19924   19926   19926   19924   19927
   19927   19930   19933   19927   19930   19932   19927   19930   19931
   19928   19927   19930   19928   19927   19929   19929   19927   19930
   19930   19933   19936   19930   19933   19935   19930   19933   19934
   19931   19930   19933   19931   19930   19932   19932   19930   19933
   19933   19936   19939   19933   19936   19938   19933   19936   19937
   19934   19933   19936   19934   19933   19935   19935   19933   19936
   19936   19939   19942   19936   19939   19941   19936   19939   19940
   19937   19936   19939   19937   19936   19938   19938   19936   19939
   19939   19942   19945   19939   19942   19944   19939   19942   19943
   19940   19939   19942   19940   19939   19941   19941   19939   19942
   19942   19945   19948   19942   19945   19947   19942   19945   19946
   19943   19942   19945   19943   19942   19944   19944   19942   19945
   19945   19948   19951   19945   19948   19950   19945   19948   19949
   19946   19945   19948   19946   19945   19947   19947   19945   19948
   19948   19951   19954   19948   19951   19953   19948   19951   19952
   19949   19948   19951   19949   19948   19950   19950   19948   19951
   19951   19954   19957   19951   19954   19956   19951   19954   19955
   19952   19951   19954   19952   19951   19953   19953   19951   19954
   19954   19957   19960   19954   19957   19959   19954   19957   19958
   19955   19954   19957   19955   19954   19956   19956   19954   19957
   19957   19960   19963   19957   19960   19962   19957   19960   19961
   19958   19957   19960   19958   19957   19959   19959   19957   19960
   19960   19963   19966   19960   19963   19965   19960   19963   19964
   19961   19960   19963   19961   19960   19962   19962   19960   19963
   19964   19963   19966   19964   19963   19965   19965   19963   19966
   19967   19976   19979   19967   19976   19978   19967   19976   19977
   19967   19972   19975   19967   19972   19974   19967   19972   19973
   19967   19968   19971   19967   19968   19970   19967   19968   19969
   19969   19968   19971   19969   19968   19970   19970   19968   19971
   19968   19967   19972   19973   19972   19975   19973   19972   19974
   19974   19972   19975   19968   19967   19976   19972   19967   19976
   19977   19976   19979   19977   19976   19978   19978   19976   19979
   19968   19967   19980   19972   19967   19980   19976   19967   19980
   19967   19980   19981   19981   19980   19982   19967   19980   19982
   19967   19980   19983   19982   19980   19983   19981   19980   19983
   19980   19983   19984   19984   19983   19985   19980   19983   19985
   19983   19990   19986   19987   19986   19988   19988   19986   19989
   19987   19986   19989   19989   19986   19990   19988   19986   19990
   19987   19986   19990   19980   19983   19990   19985   19983   19990
   19984   19983   19990   19991   19996   19994   19986   19989   19991
   19989   19991   19992   19992   19991   19993   19989   19991   19993
   19994   20046   20047   19994   20046   20048   19995   19994   20046
   19996   19994   20046   19995   19994   19996   19989   19991   19996
   19993   19991   19996   19992   19991   19996   19994   19996   19997
   19991   19996   19997   19998   20002   20004   19998   20000   20001
   19994   19996   19998   19991   19996   19998   19997   19996   19998
   19996   19998   19999   19999   19998   20000   19996   19998   20000
   19996   19998   20002   20000   19998   20002   19999   19998   20002
   20003   20002   20004   19998   20002   20003   20002   20004   20005
   20002   20004   20006   20005   20004   20006   20004   20006   20007
   20007   20006   20008   20004   20006   20008   20004   20006   20009
   20008   20006   20009   20007   20006   20009   20006   20009   20010
   20010   20009   20011   20006   20009   20011   20006   20009   20012
   20011   20009   20012   20010   20009   20012   20009   20012   20013
   20013   20012   20014   20009   20012   20014   20009   20012   20015
   20014   20012   20015   20013   20012   20015   20012   20015   20016
   20016   20015   20017   20012   20015   20017   20012   20015   20018
   20017   20015   20018   20016   20015   20018   20015   20018   20019
   20019   20018   20020   20015   20018   20020   20015   20018   20021
   20020   20018   20021   20019   20018   20021   20018   20021   20022
   20022   20021   20023   20018   20021   20023   20018   20021   20024
   20023   20021   20024   20022   20021   20024   20021   20024   20025
   20025   20024   20026   20021   20024   20026   20021   20024   20027
   20026   20024   20027   20025   20024   20027   20024   20027   20028
   20028   20027   20029   20024   20027   20029   20024   20027   20030
   20029   20027   20030   20028   20027   20030   20027   20030   20031
   20031   20030   20032   20027   20030   20032   20027   20030   20033
   20032   20030   20033   20031   20030   20033   20030   20033   20034
   20034   20033   20035   20030   20033   20035   20030   20033   20036
   20035   20033   20036   20034   20033   20036   20033   20036   20037
   20037   20036   20038   20033   20036   20038   20033   20036   20039
   20038   20036   20039   20037   20036   20039   20036   20039   20040
   20040   20039   20041   20036   20039   20041   20036   20039   20042
   20041   20039   20042   20040   20039   20042   20039   20042   20043
   20043   20042   20045   20043   20042   20044   20039   20042   20044
   20044   20042   20045   20039   20042   20045   20046   20048   20051
   20046   20048   20050   20046   20048   20049   20048   20051   20054
   20048   20051   20053   20048   20051   20052   20047   20046   20048
   20049   20048   20051   20049   20048   20050   20050   20048   20051
   20051   20054   20057   20051   20054   20056   20051   20054   20055
   20052   20051   20054   20052   20051   20053   20053   20051   20054
   20054   20057   20060   20054   20057   20059   20054   20057   20058
   20055   20054   20057   20055   20054   20056   20056   20054   20057
   20057   20060   20063   20057   20060   20062   20057   20060   20061
   20058   20057   20060   20058   20057   20059   20059   20057   20060
   20060   20063   20066   20060   20063   20065   20060   20063   20064
   20061   20060   20063   20061   20060   20062   20062   20060   20063
   20063   20066   20069   20063   20066   20068   20063   20066   20067
   20064   20063   20066   20064   20063   20065   20065   20063   20066
   20066   20069   20072   20066   20069   20071   20066   20069   20070
   20067   20066   20069   20067   20066   20068   20068   20066   20069
   20069   20072   20075   20069   20072   20074   20069   20072   20073
   20070   20069   20072   20070   20069   20071   20071   20069   20072
   20072   20075   20078   20072   20075   20077   20072   20075   20076
   20073   20072   20075   20073   20072   20074   20074   20072   20075
   20075   20078   20081   20075   20078   20080   20075   20078   20079
   20076   20075   20078   20076   20075   20077   20077   20075   20078
   20078   20081   20084   20078   20081   20083   20078   20081   20082
   20079   20078   20081   20079   20078   20080   20080   20078   20081
   20081   20084   20087   20081   20084   20086   20081   20084   20085
   20082   20081   20084   20082   20081   20083   20083   20081   20084
   20084   20087   20090   20084   20087   20089   20084   20087   20088
   20085   20084   20087   20085   20084   20086   20086   20084   20087
   20087   20090   20093   20087   20090   20092   20087   20090   20091
   20088   20087   20090   20088   20087   20089   20089   20087   20090
   20091   20090   20093   20091   20090   20092   20092   20090   20093
   20094   20098   20101   20094   20098   20100   20094   20098   20099
   20095   20094   20098   20095   20094   20097   20095   20094   20096
   20096   20094   20098   20096   20094   20097   20097   20094   20098
   20098   20101   20108   20098   20101   20103   20098   20101   20102
   20099   20098   20101   20099   20098   20100   20100   20098   20101
   20101   20108   20104   20102   20101   20108   20102   20101   20103
   20103   20101   20108   20104   20107   20109   20105   20104   20106
   20106   20104   20107   20105   20104   20107   20106   20104   20108
   20105   20104   20108   20107   20104   20108   20109   20112   20114
   20109   20112   20120   20109   20112   20113   20107   20109   20110
   20110   20109   20112   20110   20109   20111   20107   20109   20111
   20111   20109   20112   20112   20120   20123   20112   20120   20122
   20112   20120   20121   20112   20114   20115   20107   20109   20112
   20113   20112   20114   20113   20112   20120   20114   20115   20116
   20114   20115   20117   20115   20117   20129   20115   20117   20119
   20115   20117   20118   20117   20129   20132   20117   20129   20131
   20117   20129   20130   20116   20115   20117   20118   20117   20129
   20118   20117   20119   20119   20117   20129   20120   20123   20124
   20114   20112   20120   20121   20120   20123   20121   20120   20122
   20122   20120   20123   20123   20124   20125   20123   20124   20126
   20124   20126   20176   20124   20126   20128   20124   20126   20127
   20126   20176   20179   20126   20176   20178   20126   20176   20177
   20125   20124   20126   20127   20126   20176   20127   20126   20128
   20128   20126   20176   20129   20132   20135   20129   20132   20134
   20129   20132   20133   20130   20129   20132   20130   20129   20131
   20131   20129   20132   20132   20135   20138   20132   20135   20137
   20132   20135   20136   20133   20132   20135   20133   20132   20134
   20134   20132   20135   20135   20138   20141   20135   20138   20140
   20135   20138   20139   20136   20135   20138   20136   20135   20137
   20137   20135   20138   20138   20141   20144   20138   20141   20143
   20138   20141   20142   20139   20138   20141   20139   20138   20140
   20140   20138   20141   20141   20144   20147   20141   20144   20146
   20141   20144   20145   20142   20141   20144   20142   20141   20143
   20143   20141   20144   20144   20147   20149   20144   20147   20148
   20145   20144   20147   20145   20144   20146   20146   20144   20147
   20147   20149   20151   20147   20149   20150   20148   20147   20149
   20149   20151   20154   20149   20151   20153   20149   20151   20152
   20150   20149   20151   20151   20154   20157   20151   20154   20156
   20151   20154   20155   20152   20151   20154   20152   20151   20153
   20153   20151   20154   20154   20157   20160   20154   20157   20159
   20154   20157   20158   20155   20154   20157   20155   20154   20156
   20156   20154   20157   20157   20160   20163   20157   20160   20162
   20157   20160   20161   20158   20157   20160   20158   20157   20159
   20159   20157   20160   20160   20163   20166   20160   20163   20165
   20160   20163   20164   20161   20160   20163   20161   20160   20162
   20162   20160   20163   20163   20166   20169   20163   20166   20168
   20163   20166   20167   20164   20163   20166   20164   20163   20165
   20165   20163   20166   20166   20169   20172   20166   20169   20171
   20166   20169   20170   20167   20166   20169   20167   20166   20168
   20168   20166   20169   20169   20172   20175   20169   20172   20174
   20169   20172   20173   20170   20169   20172   20170   20169   20171
   20171   20169   20172   20173   20172   20175   20173   20172   20174
   20174   20172   20175   20176   20179   20182   20176   20179   20181
   20176   20179   20180   20177   20176   20179   20177   20176   20178
   20178   20176   20179   20179   20182   20185   20179   20182   20184
   20179   20182   20183   20180   20179   20182   20180   20179   20181
   20181   20179   20182   20182   20185   20188   20182   20185   20187
   20182   20185   20186   20183   20182   20185   20183   20182   20184
   20184   20182   20185   20185   20188   20191   20185   20188   20190
   20185   20188   20189   20186   20185   20188   20186   20185   20187
   20187   20185   20188   20188   20191   20194   20188   20191   20193
   20188   20191   20192   20189   20188   20191   20189   20188   20190
   20190   20188   20191   20191   20194   20197   20191   20194   20196
   20191   20194   20195   20192   20191   20194   20192   20191   20193
   20193   20191   20194   20194   20197   20200   20194   20197   20199
   20194   20197   20198   20195   20194   20197   20195   20194   20196
   20196   20194   20197   20197   20200   20203   20197   20200   20202
   20197   20200   20201   20198   20197   20200   20198   20197   20199
   20199   20197   20200   20200   20203   20206   20200   20203   20205
   20200   20203   20204   20201   20200   20203   20201   20200   20202
   20202   20200   20203   20203   20206   20209   20203   20206   20208
   20203   20206   20207   20204   20203   20206   20204   20203   20205
   20205   20203   20206   20206   20209   20212   20206   20209   20211
   20206   20209   20210   20207   20206   20209   20207   20206   20208
   20208   20206   20209   20209   20212   20215   20209   20212   20214
   20209   20212   20213   20210   20209   20212   20210   20209   20211
   20211   20209   20212   20212   20215   20218   20212   20215   20217
   20212   20215   20216   20213   20212   20215   20213   20212   20214
   20214   20212   20215   20216   20215   20218   20216   20215   20217
   20217   20215   20218   20219   20223   20226   20219   20223   20225
   20219   20223   20224   20220   20219   20223   20220   20219   20222
   20220   20219   20221   20221   20219   20223   20221   20219   20222
   20222   20219   20223   20223   20226   20233   20223   20226   20228
   20223   20226   20227   20224   20223   20226   20224   20223   20225
   20225   20223   20226   20226   20233   20229   20227   20226   20233
   20227   20226   20228   20228   20226   20233   20229   20232   20234
   20230   20229   20231   20231   20229   20232   20230   20229   20232
   20231   20229   20233   20230   20229   20233   20232   20229   20233
   20234   20237   20239   20234   20237   20245   20234   20237   20238
   20232   20234   20235   20235   20234   20237   20235   20234   20236
   20232   20234   20236   20236   20234   20237   20237   20245   20248
   20237   20245   20247   20237   20245   20246   20237   20239   20240
   20232   20234   20237   20238   20237   20239   20238   20237   20245
   20239   20240   20241   20239   20240   20242   20240   20242   20254
   20240   20242   20244   20240   20242   20243   20242   20254   20257
   20242   20254   20256   20242   20254   20255   20241   20240   20242
   20243   20242   20254   20243   20242   20244   20244   20242   20254
   20245   20248   20249   20239   20237   20245   20246   20245   20248
   20246   20245   20247   20247   20245   20248   20248   20249   20250
   20248   20249   20251   20249   20251   20301   20249   20251   20253
   20249   20251   20252   20251   20301   20304   20251   20301   20303
   20251   20301   20302   20250   20249   20251   20252   20251   20301
   20252   20251   20253   20253   20251   20301   20254   20257   20260
   20254   20257   20259   20254   20257   20258   20255   20254   20257
   20255   20254   20256   20256   20254   20257   20257   20260   20263
   20257   20260   20262   20257   20260   20261   20258   20257   20260
   20258   20257   20259   20259   20257   20260   20260   20263   20266
   20260   20263   20265   20260   20263   20264   20261   20260   20263
   20261   20260   20262   20262   20260   20263   20263   20266   20269
   20263   20266   20268   20263   20266   20267   20264   20263   20266
   20264   20263   20265   20265   20263   20266   20266   20269   20272
   20266   20269   20271   20266   20269   20270   20267   20266   20269
   20267   20266   20268   20268   20266   20269   20269   20272   20274
   20269   20272   20273   20270   20269   20272   20270   20269   20271
   20271   20269   20272   20272   20274   20276   20272   20274   20275
   20273   20272   20274   20274   20276   20279   20274   20276   20278
   20274   20276   20277   20275   20274   20276   20276   20279   20282
   20276   20279   20281   20276   20279   20280   20277   20276   20279
   20277   20276   20278   20278   20276   20279   20279   20282   20285
   20279   20282   20284   20279   20282   20283   20280   20279   20282
   20280   20279   20281   20281   20279   20282   20282   20285   20288
   20282   20285   20287   20282   20285   20286   20283   20282   20285
   20283   20282   20284   20284   20282   20285   20285   20288   20291
   20285   20288   20290   20285   20288   20289   20286   20285   20288
   20286   20285   20287   20287   20285   20288   20288   20291   20294
   20288   20291   20293   20288   20291   20292   20289   20288   20291
   20289   20288   20290   20290   20288   20291   20291   20294   20297
   20291   20294   20296   20291   20294   20295   20292   20291   20294
   20292   20291   20293   20293   20291   20294   20294   20297   20300
   20294   20297   20299   20294   20297   20298   20295   20294   20297
   20295   20294   20296   20296   20294   20297   20298   20297   20300
   20298   20297   20299   20299   20297   20300   20301   20304   20307
   20301   20304   20306   20301   20304   20305   20302   20301   20304
   20302   20301   20303   20303   20301   20304   20304   20307   20310
   20304   20307   20309   20304   20307   20308   20305   20304   20307
   20305   20304   20306   20306   20304   20307   20307   20310   20313
   20307   20310   20312   20307   20310   20311   20308   20307   20310
   20308   20307   20309   20309   20307   20310   20310   20313   20316
   20310   20313   20315   20310   20313   20314   20311   20310   20313
   20311   20310   20312   20312   20310   20313   20313   20316   20319
   20313   20316   20318   20313   20316   20317   20314   20313   20316
   20314   20313   20315   20315   20313   20316   20316   20319   20322
   20316   20319   20321   20316   20319   20320   20317   20316   20319
   20317   20316   20318   20318   20316   20319   20319   20322   20325
   20319   20322   20324   20319   20322   20323   20320   20319   20322
   20320   20319   20321   20321   20319   20322   20322   20325   20328
   20322   20325   20327   20322   20325   20326   20323   20322   20325
   20323   20322   20324   20324   20322   20325   20325   20328   20331
   20325   20328   20330   20325   20328   20329   20326   20325   20328
   20326   20325   20327   20327   20325   20328   20328   20331   20334
   20328   20331   20333   20328   20331   20332   20329   20328   20331
   20329   20328   20330   20330   20328   20331   20331   20334   20337
   20331   20334   20336   20331   20334   20335   20332   20331   20334
   20332   20331   20333   20333   20331   20334   20334   20337   20340
   20334   20337   20339   20334   20337   20338   20335   20334   20337
   20335   20334   20336   20336   20334   20337   20337   20340   20343
   20337   20340   20342   20337   20340   20341   20338   20337   20340
   20338   20337   20339   20339   20337   20340   20341   20340   20343
   20341   20340   20342   20342   20340   20343   20344   20353   20356
   20344   20353   20355   20344   20353   20354   20344   20349   20352
   20344   20349   20351   20344   20349   20350   20344   20345   20348
   20344   20345   20347   20344   20345   20346   20346   20345   20348
   20346   20345   20347   20347   20345   20348   20345   20344   20349
   20350   20349   20352   20350   20349   20351   20351   20349   20352
   20345   20344   20353   20349   20344   20353   20354   20353   20356
   20354   20353   20355   20355   20353   20356   20345   20344   20357
   20349   20344   20357   20353   20344   20357   20344   20357   20358
   20358   20357   20359   20344   20357   20359   20344   20357   20360
   20359   20357   20360   20358   20357   20360   20357   20360   20361
   20361   20360   20362   20357   20360   20362   20360   20367   20363
   20364   20363   20365   20365   20363   20366   20364   20363   20366
   20366   20363   20367   20365   20363   20367   20364   20363   20367
   20357   20360   20367   20362   20360   20367   20361   20360   20367
   20368   20373   20371   20363   20366   20368   20366   20368   20369
   20369   20368   20370   20366   20368   20370   20371   20423   20424
   20371   20423   20425   20372   20371   20423   20373   20371   20423
   20372   20371   20373   20366   20368   20373   20370   20368   20373
   20369   20368   20373   20371   20373   20374   20368   20373   20374
   20375   20379   20381   20375   20377   20378   20371   20373   20375
   20368   20373   20375   20374   20373   20375   20373   20375   20376
   20376   20375   20377   20373   20375   20377   20373   20375   20379
   20377   20375   20379   20376   20375   20379   20380   20379   20381
   20375   20379   20380   20379   20381   20382   20379   20381   20383
   20382   20381   20383   20381   20383   20384   20384   20383   20385
   20381   20383   20385   20381   20383   20386   20385   20383   20386
   20384   20383   20386   20383   20386   20387   20387   20386   20388
   20383   20386   20388   20383   20386   20389   20388   20386   20389
   20387   20386   20389   20386   20389   20390   20390   20389   20391
   20386   20389   20391   20386   20389   20392   20391   20389   20392
   20390   20389   20392   20389   20392   20393   20393   20392   20394
   20389   20392   20394   20389   20392   20395   20394   20392   20395
   20393   20392   20395   20392   20395   20396   20396   20395   20397
   20392   20395   20397   20392   20395   20398   20397   20395   20398
   20396   20395   20398   20395   20398   20399   20399   20398   20400
   20395   20398   20400   20395   20398   20401   20400   20398   20401
   20399   20398   20401   20398   20401   20402   20402   20401   20403
   20398   20401   20403   20398   20401   20404   20403   20401   20404
   20402   20401   20404   20401   20404   20405   20405   20404   20406
   20401   20404   20406   20401   20404   20407   20406   20404   20407
   20405   20404   20407   20404   20407   20408   20408   20407   20409
   20404   20407   20409   20404   20407   20410   20409   20407   20410
   20408   20407   20410   20407   20410   20411   20411   20410   20412
   20407   20410   20412   20407   20410   20413   20412   20410   20413
   20411   20410   20413   20410   20413   20414   20414   20413   20415
   20410   20413   20415   20410   20413   20416   20415   20413   20416
   20414   20413   20416   20413   20416   20417   20417   20416   20418
   20413   20416   20418   20413   20416   20419   20418   20416   20419
   20417   20416   20419   20416   20419   20420   20420   20419   20422
   20420   20419   20421   20416   20419   20421   20421   20419   20422
   20416   20419   20422   20423   20425   20428   20423   20425   20427
   20423   20425   20426   20425   20428   20431   20425   20428   20430
   20425   20428   20429   20424   20423   20425   20426   20425   20428
   20426   20425   20427   20427   20425   20428   20428   20431   20434
   20428   20431   20433   20428   20431   20432   20429   20428   20431
   20429   20428   20430   20430   20428   20431   20431   20434   20437
   20431   20434   20436   20431   20434   20435   20432   20431   20434
   20432   20431   20433   20433   20431   20434   20434   20437   20440
   20434   20437   20439   20434   20437   20438   20435   20434   20437
   20435   20434   20436   20436   20434   20437   20437   20440   20443
   20437   20440   20442   20437   20440   20441   20438   20437   20440
   20438   20437   20439   20439   20437   20440   20440   20443   20446
   20440   20443   20445   20440   20443   20444   20441   20440   20443
   20441   20440   20442   20442   20440   20443   20443   20446   20449
   20443   20446   20448   20443   20446   20447   20444   20443   20446
   20444   20443   20445   20445   20443   20446   20446   20449   20452
   20446   20449   20451   20446   20449   20450   20447   20446   20449
   20447   20446   20448   20448   20446   20449   20449   20452   20455
   20449   20452   20454   20449   20452   20453   20450   20449   20452
   20450   20449   20451   20451   20449   20452   20452   20455   20458
   20452   20455   20457   20452   20455   20456   20453   20452   20455
   20453   20452   20454   20454   20452   20455   20455   20458   20461
   20455   20458   20460   20455   20458   20459   20456   20455   20458
   20456   20455   20457   20457   20455   20458   20458   20461   20464
   20458   20461   20463   20458   20461   20462   20459   20458   20461
   20459   20458   20460   20460   20458   20461   20461   20464   20467
   20461   20464   20466   20461   20464   20465   20462   20461   20464
   20462   20461   20463   20463   20461   20464   20464   20467   20470
   20464   20467   20469   20464   20467   20468   20465   20464   20467
   20465   20464   20466   20466   20464   20467   20468   20467   20470
   20468   20467   20469   20469   20467   20470   20471   20475   20480
   20471   20475   20476   20471   20475   20477   20472   20471   20475
   20472   20471   20474   20472   20471   20473   20473   20471   20475
   20473   20471   20474   20474   20471   20475   20475   20480   20486
   20475   20480   20482   20475   20480   20481   20475   20477   20478
   20476   20475   20480   20477   20475   20480   20476   20475   20477
   20478   20477   20479   20475   20477   20479   20480   20486   20483
   20481   20480   20486   20481   20480   20482   20482   20480   20486
   20484   20483   20485   20485   20483   20486   20484   20483   20486
   20486   20483   20487   20487   20488   20491   20487   20488   20490
   20487   20488   20489   20485   20483   20487   20484   20483   20487
   20488   20491   20493   20488   20491   20499   20488   20491   20492
   20483   20487   20488   20489   20488   20491   20489   20488   20490
   20490   20488   20491   20491   20499   20502   20491   20499   20501
   20491   20499   20500   20491   20493   20494   20492   20491   20493
   20492   20491   20499   20493   20494   20495   20493   20494   20496
   20494   20496   20508   20494   20496   20498   20494   20496   20497
   20496   20508   20511   20496   20508   20510   20496   20508   20509
   20495   20494   20496   20497   20496   20508   20497   20496   20498
   20498   20496   20508   20499   20502   20503   20493   20491   20499
   20500   20499   20502   20500   20499   20501   20501   20499   20502
   20502   20503   20504   20502   20503   20505   20503   20505   20555
   20503   20505   20507   20503   20505   20506   20505   20555   20558
   20505   20555   20557   20505   20555   20556   20504   20503   20505
   20506   20505   20555   20506   20505   20507   20507   20505   20555
   20508   20511   20514   20508   20511   20513   20508   20511   20512
   20509   20508   20511   20509   20508   20510   20510   20508   20511
   20511   20514   20517   20511   20514   20516   20511   20514   20515
   20512   20511   20514   20512   20511   20513   20513   20511   20514
   20514   20517   20520   20514   20517   20519   20514   20517   20518
   20515   20514   20517   20515   20514   20516   20516   20514   20517
   20517   20520   20523   20517   20520   20522   20517   20520   20521
   20518   20517   20520   20518   20517   20519   20519   20517   20520
   20520   20523   20526   20520   20523   20525   20520   20523   20524
   20521   20520   20523   20521   20520   20522   20522   20520   20523
   20523   20526   20528   20523   20526   20527   20524   20523   20526
   20524   20523   20525   20525   20523   20526   20526   20528   20530
   20526   20528   20529   20527   20526   20528   20528   20530   20533
   20528   20530   20532   20528   20530   20531   20529   20528   20530
   20530   20533   20536   20530   20533   20535   20530   20533   20534
   20531   20530   20533   20531   20530   20532   20532   20530   20533
   20533   20536   20539   20533   20536   20538   20533   20536   20537
   20534   20533   20536   20534   20533   20535   20535   20533   20536
   20536   20539   20542   20536   20539   20541   20536   20539   20540
   20537   20536   20539   20537   20536   20538   20538   20536   20539
   20539   20542   20545   20539   20542   20544   20539   20542   20543
   20540   20539   20542   20540   20539   20541   20541   20539   20542
   20542   20545   20548   20542   20545   20547   20542   20545   20546
   20543   20542   20545   20543   20542   20544   20544   20542   20545
   20545   20548   20551   20545   20548   20550   20545   20548   20549
   20546   20545   20548   20546   20545   20547   20547   20545   20548
   20548   20551   20554   20548   20551   20553   20548   20551   20552
   20549   20548   20551   20549   20548   20550   20550   20548   20551
   20552   20551   20554   20552   20551   20553   20553   20551   20554
   20555   20558   20561   20555   20558   20560   20555   20558   20559
   20556   20555   20558   20556   20555   20557   20557   20555   20558
   20558   20561   20564   20558   20561   20563   20558   20561   20562
   20559   20558   20561   20559   20558   20560   20560   20558   20561
   20561   20564   20567   20561   20564   20566   20561   20564   20565
   20562   20561   20564   20562   20561   20563   20563   20561   20564
   20564   20567   20570   20564   20567   20569   20564   20567   20568
   20565   20564   20567   20565   20564   20566   20566   20564   20567
   20567   20570   20573   20567   20570   20572   20567   20570   20571
   20568   20567   20570   20568   20567   20569   20569   20567   20570
   20570   20573   20576   20570   20573   20575   20570   20573   20574
   20571   20570   20573   20571   20570   20572   20572   20570   20573
   20573   20576   20579   20573   20576   20578   20573   20576   20577
   20574   20573   20576   20574   20573   20575   20575   20573   20576
   20576   20579   20582   20576   20579   20581   20576   20579   20580
   20577   20576   20579   20577   20576   20578   20578   20576   20579
   20579   20582   20585   20579   20582   20584   20579   20582   20583
   20580   20579   20582   20580   20579   20581   20581   20579   20582
   20582   20585   20588   20582   20585   20587   20582   20585   20586
   20583   20582   20585   20583   20582   20584   20584   20582   20585
   20585   20588   20591   20585   20588   20590   20585   20588   20589
   20586   20585   20588   20586   20585   20587   20587   20585   20588
   20588   20591   20594   20588   20591   20593   20588   20591   20592
   20589   20588   20591   20589   20588   20590   20590   20588   20591
   20591   20594   20597   20591   20594   20596   20591   20594   20595
   20592   20591   20594   20592   20591   20593   20593   20591   20594
   20595   20594   20597   20595   20594   20596   20596   20594   20597
   20598   20602   20605   20598   20602   20604   20598   20602   20603
   20599   20598   20602   20599   20598   20601   20599   20598   20600
   20600   20598   20602   20600   20598   20601   20601   20598   20602
   20602   20605   20612   20602   20605   20607   20602   20605   20606
   20603   20602   20605   20603   20602   20604   20604   20602   20605
   20605   20612   20608   20606   20605   20612   20606   20605   20607
   20607   20605   20612   20608   20611   20613   20609   20608   20610
   20610   20608   20611   20609   20608   20611   20610   20608   20612
   20609   20608   20612   20611   20608   20612   20613   20616   20618
   20613   20616   20624   20613   20616   20617   20611   20613   20614
   20614   20613   20616   20614   20613   20615   20611   20613   20615
   20615   20613   20616   20616   20624   20627   20616   20624   20626
   20616   20624   20625   20616   20618   20619   20611   20613   20616
   20617   20616   20618   20617   20616   20624   20618   20619   20620
   20618   20619   20621   20619   20621   20633   20619   20621   20623
   20619   20621   20622   20621   20633   20636   20621   20633   20635
   20621   20633   20634   20620   20619   20621   20622   20621   20633
   20622   20621   20623   20623   20621   20633   20624   20627   20628
   20618   20616   20624   20625   20624   20627   20625   20624   20626
   20626   20624   20627   20627   20628   20629   20627   20628   20630
   20628   20630   20680   20628   20630   20632   20628   20630   20631
   20630   20680   20683   20630   20680   20682   20630   20680   20681
   20629   20628   20630   20631   20630   20680   20631   20630   20632
   20632   20630   20680   20633   20636   20639   20633   20636   20638
   20633   20636   20637   20634   20633   20636   20634   20633   20635
   20635   20633   20636   20636   20639   20642   20636   20639   20641
   20636   20639   20640   20637   20636   20639   20637   20636   20638
   20638   20636   20639   20639   20642   20645   20639   20642   20644
   20639   20642   20643   20640   20639   20642   20640   20639   20641
   20641   20639   20642   20642   20645   20648   20642   20645   20647
   20642   20645   20646   20643   20642   20645   20643   20642   20644
   20644   20642   20645   20645   20648   20651   20645   20648   20650
   20645   20648   20649   20646   20645   20648   20646   20645   20647
   20647   20645   20648   20648   20651   20653   20648   20651   20652
   20649   20648   20651   20649   20648   20650   20650   20648   20651
   20651   20653   20655   20651   20653   20654   20652   20651   20653
   20653   20655   20658   20653   20655   20657   20653   20655   20656
   20654   20653   20655   20655   20658   20661   20655   20658   20660
   20655   20658   20659   20656   20655   20658   20656   20655   20657
   20657   20655   20658   20658   20661   20664   20658   20661   20663
   20658   20661   20662   20659   20658   20661   20659   20658   20660
   20660   20658   20661   20661   20664   20667   20661   20664   20666
   20661   20664   20665   20662   20661   20664   20662   20661   20663
   20663   20661   20664   20664   20667   20670   20664   20667   20669
   20664   20667   20668   20665   20664   20667   20665   20664   20666
   20666   20664   20667   20667   20670   20673   20667   20670   20672
   20667   20670   20671   20668   20667   20670   20668   20667   20669
   20669   20667   20670   20670   20673   20676   20670   20673   20675
   20670   20673   20674   20671   20670   20673   20671   20670   20672
   20672   20670   20673   20673   20676   20679   20673   20676   20678
   20673   20676   20677   20674   20673   20676   20674   20673   20675
   20675   20673   20676   20677   20676   20679   20677   20676   20678
   20678   20676   20679   20680   20683   20686   20680   20683   20685
   20680   20683   20684   20681   20680   20683   20681   20680   20682
   20682   20680   20683   20683   20686   20689   20683   20686   20688
   20683   20686   20687   20684   20683   20686   20684   20683   20685
   20685   20683   20686   20686   20689   20692   20686   20689   20691
   20686   20689   20690   20687   20686   20689   20687   20686   20688
   20688   20686   20689   20689   20692   20695   20689   20692   20694
   20689   20692   20693   20690   20689   20692   20690   20689   20691
   20691   20689   20692   20692   20695   20698   20692   20695   20697
   20692   20695   20696   20693   20692   20695   20693   20692   20694
   20694   20692   20695   20695   20698   20701   20695   20698   20700
   20695   20698   20699   20696   20695   20698   20696   20695   20697
   20697   20695   20698   20698   20701   20704   20698   20701   20703
   20698   20701   20702   20699   20698   20701   20699   20698   20700
   20700   20698   20701   20701   20704   20707   20701   20704   20706
   20701   20704   20705   20702   20701   20704   20702   20701   20703
   20703   20701   20704   20704   20707   20710   20704   20707   20709
   20704   20707   20708   20705   20704   20707   20705   20704   20706
   20706   20704   20707   20707   20710   20713   20707   20710   20712
   20707   20710   20711   20708   20707   20710   20708   20707   20709
   20709   20707   20710   20710   20713   20716   20710   20713   20715
   20710   20713   20714   20711   20710   20713   20711   20710   20712
   20712   20710   20713   20713   20716   20719   20713   20716   20718
   20713   20716   20717   20714   20713   20716   20714   20713   20715
   20715   20713   20716   20716   20719   20722   20716   20719   20721
   20716   20719   20720   20717   20716   20719   20717   20716   20718
   20718   20716   20719   20720   20719   20722   20720   20719   20721
   20721   20719   20722   20723   20735   20738   20723   20735   20737
   20723   20735   20736   20723   20731   20734   20723   20731   20733
   20723   20731   20732   20723   20727   20730   20723   20727   20729
   20723   20727   20728   20723   20724   20739   20723   20724   20726
   20723   20724   20725   20724   20739   20745   20724   20739   20741
   20724   20739   20740   20725   20724   20739   20725   20724   20726
   20726   20724   20739   20724   20723   20727   20727   20723   20735
   20727   20723   20731   20728   20727   20730   20728   20727   20729
   20729   20727   20730   20724   20723   20731   20731   20723   20735
   20732   20731   20734   20732   20731   20733   20733   20731   20734
   20724   20723   20735   20736   20735   20738   20736   20735   20737
   20737   20735   20738   20739   20745   20742   20740   20739   20745
   20740   20739   20741   20741   20739   20745   20743   20742   20744
   20744   20742   20745   20743   20742   20745   20745   20742   20746
   20746   20747   20750   20746   20747   20749   20746   20747   20748
   20744   20742   20746   20743   20742   20746   20747   20750   20752
   20747   20750   20758   20747   20750   20751   20742   20746   20747
   20748   20747   20750   20748   20747   20749   20749   20747   20750
   20750   20758   20761   20750   20758   20760   20750   20758   20759
   20750   20752   20753   20751   20750   20752   20751   20750   20758
   20752   20753   20754   20752   20753   20755   20753   20755   20767
   20753   20755   20757   20753   20755   20756   20755   20767   20770
   20755   20767   20769   20755   20767   20768   20754   20753   20755
   20756   20755   20767   20756   20755   20757   20757   20755   20767
   20758   20761   20762   20752   20750   20758   20759   20758   20761
   20759   20758   20760   20760   20758   20761   20761   20762   20763
   20761   20762   20764   20762   20764   20814   20762   20764   20766
   20762   20764   20765   20764   20814   20817   20764   20814   20816
   20764   20814   20815   20763   20762   20764   20765   20764   20814
   20765   20764   20766   20766   20764   20814   20767   20770   20773
   20767   20770   20772   20767   20770   20771   20768   20767   20770
   20768   20767   20769   20769   20767   20770   20770   20773   20776
   20770   20773   20775   20770   20773   20774   20771   20770   20773
   20771   20770   20772   20772   20770   20773   20773   20776   20779
   20773   20776   20778   20773   20776   20777   20774   20773   20776
   20774   20773   20775   20775   20773   20776   20776   20779   20782
   20776   20779   20781   20776   20779   20780   20777   20776   20779
   20777   20776   20778   20778   20776   20779   20779   20782   20785
   20779   20782   20784   20779   20782   20783   20780   20779   20782
   20780   20779   20781   20781   20779   20782   20782   20785   20787
   20782   20785   20786   20783   20782   20785   20783   20782   20784
   20784   20782   20785   20785   20787   20789   20785   20787   20788
   20786   20785   20787   20787   20789   20792   20787   20789   20791
   20787   20789   20790   20788   20787   20789   20789   20792   20795
   20789   20792   20794   20789   20792   20793   20790   20789   20792
   20790   20789   20791   20791   20789   20792   20792   20795   20798
   20792   20795   20797   20792   20795   20796   20793   20792   20795
   20793   20792   20794   20794   20792   20795   20795   20798   20801
   20795   20798   20800   20795   20798   20799   20796   20795   20798
   20796   20795   20797   20797   20795   20798   20798   20801   20804
   20798   20801   20803   20798   20801   20802   20799   20798   20801
   20799   20798   20800   20800   20798   20801   20801   20804   20807
   20801   20804   20806   20801   20804   20805   20802   20801   20804
   20802   20801   20803   20803   20801   20804   20804   20807   20810
   20804   20807   20809   20804   20807   20808   20805   20804   20807
   20805   20804   20806   20806   20804   20807   20807   20810   20813
   20807   20810   20812   20807   20810   20811   20808   20807   20810
   20808   20807   20809   20809   20807   20810   20811   20810   20813
   20811   20810   20812   20812   20810   20813   20814   20817   20820
   20814   20817   20819   20814   20817   20818   20815   20814   20817
   20815   20814   20816   20816   20814   20817   20817   20820   20823
   20817   20820   20822   20817   20820   20821   20818   20817   20820
   20818   20817   20819   20819   20817   20820   20820   20823   20826
   20820   20823   20825   20820   20823   20824   20821   20820   20823
   20821   20820   20822   20822   20820   20823   20823   20826   20829
   20823   20826   20828   20823   20826   20827   20824   20823   20826
   20824   20823   20825   20825   20823   20826   20826   20829   20832
   20826   20829   20831   20826   20829   20830   20827   20826   20829
   20827   20826   20828   20828   20826   20829   20829   20832   20835
   20829   20832   20834   20829   20832   20833   20830   20829   20832
   20830   20829   20831   20831   20829   20832   20832   20835   20838
   20832   20835   20837   20832   20835   20836   20833   20832   20835
   20833   20832   20834   20834   20832   20835   20835   20838   20841
   20835   20838   20840   20835   20838   20839   20836   20835   20838
   20836   20835   20837   20837   20835   20838   20838   20841   20844
   20838   20841   20843   20838   20841   20842   20839   20838   20841
   20839   20838   20840   20840   20838   20841   20841   20844   20847
   20841   20844   20846   20841   20844   20845   20842   20841   20844
   20842   20841   20843   20843   20841   20844   20844   20847   20850
   20844   20847   20849   20844   20847   20848   20845   20844   20847
   20845   20844   20846   20846   20844   20847   20847   20850   20853
   20847   20850   20852   20847   20850   20851   20848   20847   20850
   20848   20847   20849   20849   20847   20850   20850   20853   20856
   20850   20853   20855   20850   20853   20854   20851   20850   20853
   20851   20850   20852   20852   20850   20853   20854   20853   20856
   20854   20853   20855   20855   20853   20856   20857   20861   20864
   20857   20861   20863   20857   20861   20862   20858   20857   20861
   20858   20857   20860   20858   20857   20859   20859   20857   20861
   20859   20857   20860   20860   20857   20861   20861   20864   20871
   20861   20864   20866   20861   20864   20865   20862   20861   20864
   20862   20861   20863   20863   20861   20864   20864   20871   20867
   20865   20864   20871   20865   20864   20866   20866   20864   20871
   20867   20870   20872   20868   20867   20869   20869   20867   20870
   20868   20867   20870   20869   20867   20871   20868   20867   20871
   20870   20867   20871   20872   20875   20877   20872   20875   20883
   20872   20875   20876   20870   20872   20873   20873   20872   20875
   20873   20872   20874   20870   20872   20874   20874   20872   20875
   20875   20883   20886   20875   20883   20885   20875   20883   20884
   20875   20877   20878   20870   20872   20875   20876   20875   20877
   20876   20875   20883   20877   20878   20879   20877   20878   20880
   20878   20880   20892   20878   20880   20882   20878   20880   20881
   20880   20892   20895   20880   20892   20894   20880   20892   20893
   20879   20878   20880   20881   20880   20892   20881   20880   20882
   20882   20880   20892   20883   20886   20887   20877   20875   20883
   20884   20883   20886   20884   20883   20885   20885   20883   20886
   20886   20887   20888   20886   20887   20889   20887   20889   20939
   20887   20889   20891   20887   20889   20890   20889   20939   20942
   20889   20939   20941   20889   20939   20940   20888   20887   20889
   20890   20889   20939   20890   20889   20891   20891   20889   20939
   20892   20895   20898   20892   20895   20897   20892   20895   20896
   20893   20892   20895   20893   20892   20894   20894   20892   20895
   20895   20898   20901   20895   20898   20900   20895   20898   20899
   20896   20895   20898   20896   20895   20897   20897   20895   20898
   20898   20901   20904   20898   20901   20903   20898   20901   20902
   20899   20898   20901   20899   20898   20900   20900   20898   20901
   20901   20904   20907   20901   20904   20906   20901   20904   20905
   20902   20901   20904   20902   20901   20903   20903   20901   20904
   20904   20907   20910   20904   20907   20909   20904   20907   20908
   20905   20904   20907   20905   20904   20906   20906   20904   20907
   20907   20910   20912   20907   20910   20911   20908   20907   20910
   20908   20907   20909   20909   20907   20910   20910   20912   20914
   20910   20912   20913   20911   20910   20912   20912   20914   20917
   20912   20914   20916   20912   20914   20915   20913   20912   20914
   20914   20917   20920   20914   20917   20919   20914   20917   20918
   20915   20914   20917   20915   20914   20916   20916   20914   20917
   20917   20920   20923   20917   20920   20922   20917   20920   20921
   20918   20917   20920   20918   20917   20919   20919   20917   20920
   20920   20923   20926   20920   20923   20925   20920   20923   20924
   20921   20920   20923   20921   20920   20922   20922   20920   20923
   20923   20926   20929   20923   20926   20928   20923   20926   20927
   20924   20923   20926   20924   20923   20925   20925   20923   20926
   20926   20929   20932   20926   20929   20931   20926   20929   20930
   20927   20926   20929   20927   20926   20928   20928   20926   20929
   20929   20932   20935   20929   20932   20934   20929   20932   20933
   20930   20929   20932   20930   20929   20931   20931   20929   20932
   20932   20935   20938   20932   20935   20937   20932   20935   20936
   20933   20932   20935   20933   20932   20934   20934   20932   20935
   20936   20935   20938   20936   20935   20937   20937   20935   20938
   20939   20942   20945   20939   20942   20944   20939   20942   20943
   20940   20939   20942   20940   20939   20941   20941   20939   20942
   20942   20945   20948   20942   20945   20947   20942   20945   20946
   20943   20942   20945   20943   20942   20944   20944   20942   20945
   20945   20948   20951   20945   20948   20950   20945   20948   20949
   20946   20945   20948   20946   20945   20947   20947   20945   20948
   20948   20951   20954   20948   20951   20953   20948   20951   20952
   20949   20948   20951   20949   20948   20950   20950   20948   20951
   20951   20954   20957   20951   20954   20956   20951   20954   20955
   20952   20951   20954   20952   20951   20953   20953   20951   20954
   20954   20957   20960   20954   20957   20959   20954   20957   20958
   20955   20954   20957   20955   20954   20956   20956   20954   20957
   20957   20960   20963   20957   20960   20962   20957   20960   20961
   20958   20957   20960   20958   20957   20959   20959   20957   20960
   20960   20963   20966   20960   20963   20965   20960   20963   20964
   20961   20960   20963   20961   20960   20962   20962   20960   20963
   20963   20966   20969   20963   20966   20968   20963   20966   20967
   20964   20963   20966   20964   20963   20965   20965   20963   20966
   20966   20969   20972   20966   20969   20971   20966   20969   20970
   20967   20966   20969   20967   20966   20968   20968   20966   20969
   20969   20972   20975   20969   20972   20974   20969   20972   20973
   20970   20969   20972   20970   20969   20971   20971   20969   20972
   20972   20975   20978   20972   20975   20977   20972   20975   20976
   20973   20972   20975   20973   20972   20974   20974   20972   20975
   20975   20978   20981   20975   20978   20980   20975   20978   20979
   20976   20975   20978   20976   20975   20977   20977   20975   20978
   20979   20978   20981   20979   20978   20980   20980   20978   20981
   20982   20994   20997   20982   20994   20996   20982   20994   20995
   20982   20990   20993   20982   20990   20992   20982   20990   20991
   20982   20986   20989   20982   20986   20988   20982   20986   20987
   20982   20983   20998   20982   20983   20985   20982   20983   20984
   20983   20998   21004   20983   20998   21000   20983   20998   20999
   20984   20983   20998   20984   20983   20985   20985   20983   20998
   20983   20982   20986   20986   20982   20994   20986   20982   20990
   20987   20986   20989   20987   20986   20988   20988   20986   20989
   20983   20982   20990   20990   20982   20994   20991   20990   20993
   20991   20990   20992   20992   20990   20993   20983   20982   20994
   20995   20994   20997   20995   20994   20996   20996   20994   20997
   20998   21004   21001   20999   20998   21004   20999   20998   21000
   21000   20998   21004   21002   21001   21003   21003   21001   21004
   21002   21001   21004   21004   21001   21005   21005   21006   21009
   21005   21006   21008   21005   21006   21007   21003   21001   21005
   21002   21001   21005   21006   21009   21011   21006   21009   21017
   21006   21009   21010   21001   21005   21006   21007   21006   21009
   21007   21006   21008   21008   21006   21009   21009   21017   21020
   21009   21017   21019   21009   21017   21018   21009   21011   21012
   21010   21009   21011   21010   21009   21017   21011   21012   21013
   21011   21012   21014   21012   21014   21026   21012   21014   21016
   21012   21014   21015   21014   21026   21029   21014   21026   21028
   21014   21026   21027   21013   21012   21014   21015   21014   21026
   21015   21014   21016   21016   21014   21026   21017   21020   21021
   21011   21009   21017   21018   21017   21020   21018   21017   21019
   21019   21017   21020   21020   21021   21022   21020   21021   21023
   21021   21023   21073   21021   21023   21025   21021   21023   21024
   21023   21073   21076   21023   21073   21075   21023   21073   21074
   21022   21021   21023   21024   21023   21073   21024   21023   21025
   21025   21023   21073   21026   21029   21032   21026   21029   21031
   21026   21029   21030   21027   21026   21029   21027   21026   21028
   21028   21026   21029   21029   21032   21035   21029   21032   21034
   21029   21032   21033   21030   21029   21032   21030   21029   21031
   21031   21029   21032   21032   21035   21038   21032   21035   21037
   21032   21035   21036   21033   21032   21035   21033   21032   21034
   21034   21032   21035   21035   21038   21041   21035   21038   21040
   21035   21038   21039   21036   21035   21038   21036   21035   21037
   21037   21035   21038   21038   21041   21044   21038   21041   21043
   21038   21041   21042   21039   21038   21041   21039   21038   21040
   21040   21038   21041   21041   21044   21046   21041   21044   21045
   21042   21041   21044   21042   21041   21043   21043   21041   21044
   21044   21046   21048   21044   21046   21047   21045   21044   21046
   21046   21048   21051   21046   21048   21050   21046   21048   21049
   21047   21046   21048   21048   21051   21054   21048   21051   21053
   21048   21051   21052   21049   21048   21051   21049   21048   21050
   21050   21048   21051   21051   21054   21057   21051   21054   21056
   21051   21054   21055   21052   21051   21054   21052   21051   21053
   21053   21051   21054   21054   21057   21060   21054   21057   21059
   21054   21057   21058   21055   21054   21057   21055   21054   21056
   21056   21054   21057   21057   21060   21063   21057   21060   21062
   21057   21060   21061   21058   21057   21060   21058   21057   21059
   21059   21057   21060   21060   21063   21066   21060   21063   21065
   21060   21063   21064   21061   21060   21063   21061   21060   21062
   21062   21060   21063   21063   21066   21069   21063   21066   21068
   21063   21066   21067   21064   21063   21066   21064   21063   21065
   21065   21063   21066   21066   21069   21072   21066   21069   21071
   21066   21069   21070   21067   21066   21069   21067   21066   21068
   21068   21066   21069   21070   21069   21072   21070   21069   21071
   21071   21069   21072   21073   21076   21079   21073   21076   21078
   21073   21076   21077   21074   21073   21076   21074   21073   21075
   21075   21073   21076   21076   21079   21082   21076   21079   21081
   21076   21079   21080   21077   21076   21079   21077   21076   21078
   21078   21076   21079   21079   21082   21085   21079   21082   21084
   21079   21082   21083   21080   21079   21082   21080   21079   21081
   21081   21079   21082   21082   21085   21088   21082   21085   21087
   21082   21085   21086   21083   21082   21085   21083   21082   21084
   21084   21082   21085   21085   21088   21091   21085   21088   21090
   21085   21088   21089   21086   21085   21088   21086   21085   21087
   21087   21085   21088   21088   21091   21094   21088   21091   21093
   21088   21091   21092   21089   21088   21091   21089   21088   21090
   21090   21088   21091   21091   21094   21097   21091   21094   21096
   21091   21094   21095   21092   21091   21094   21092   21091   21093
   21093   21091   21094   21094   21097   21100   21094   21097   21099
   21094   21097   21098   21095   21094   21097   21095   21094   21096
   21096   21094   21097   21097   21100   21103   21097   21100   21102
   21097   21100   21101   21098   21097   21100   21098   21097   21099
   21099   21097   21100   21100   21103   21106   21100   21103   21105
   21100   21103   21104   21101   21100   21103   21101   21100   21102
   21102   21100   21103   21103   21106   21109   21103   21106   21108
   21103   21106   21107   21104   21103   21106   21104   21103   21105
   21105   21103   21106   21106   21109   21112   21106   21109   21111
   21106   21109   21110   21107   21106   21109   21107   21106   21108
   21108   21106   21109   21109   21112   21115   21109   21112   21114
   21109   21112   21113   21110   21109   21112   21110   21109   21111
   21111   21109   21112   21113   21112   21115   21113   21112   21114
   21114   21112   21115   21116   21128   21131   21116   21128   21130
   21116   21128   21129   21116   21124   21127   21116   21124   21126
   21116   21124   21125   21116   21120   21123   21116   21120   21122
   21116   21120   21121   21116   21117   21132   21116   21117   21119
   21116   21117   21118   21117   21132   21138   21117   21132   21134
   21117   21132   21133   21118   21117   21132   21118   21117   21119
   21119   21117   21132   21117   21116   21120   21120   21116   21128
   21120   21116   21124   21121   21120   21123   21121   21120   21122
   21122   21120   21123   21117   21116   21124   21124   21116   21128
   21125   21124   21127   21125   21124   21126   21126   21124   21127
   21117   21116   21128   21129   21128   21131   21129   21128   21130
   21130   21128   21131   21132   21138   21135   21133   21132   21138
   21133   21132   21134   21134   21132   21138   21136   21135   21137
   21137   21135   21138   21136   21135   21138   21138   21135   21139
   21139   21140   21143   21139   21140   21142   21139   21140   21141
   21137   21135   21139   21136   21135   21139   21140   21143   21145
   21140   21143   21151   21140   21143   21144   21135   21139   21140
   21141   21140   21143   21141   21140   21142   21142   21140   21143
   21143   21151   21154   21143   21151   21153   21143   21151   21152
   21143   21145   21146   21144   21143   21145   21144   21143   21151
   21145   21146   21147   21145   21146   21148   21146   21148   21160
   21146   21148   21150   21146   21148   21149   21148   21160   21163
   21148   21160   21162   21148   21160   21161   21147   21146   21148
   21149   21148   21160   21149   21148   21150   21150   21148   21160
   21151   21154   21155   21145   21143   21151   21152   21151   21154
   21152   21151   21153   21153   21151   21154   21154   21155   21156
   21154   21155   21157   21155   21157   21207   21155   21157   21159
   21155   21157   21158   21157   21207   21210   21157   21207   21209
   21157   21207   21208   21156   21155   21157   21158   21157   21207
   21158   21157   21159   21159   21157   21207   21160   21163   21166
   21160   21163   21165   21160   21163   21164   21161   21160   21163
   21161   21160   21162   21162   21160   21163   21163   21166   21169
   21163   21166   21168   21163   21166   21167   21164   21163   21166
   21164   21163   21165   21165   21163   21166   21166   21169   21172
   21166   21169   21171   21166   21169   21170   21167   21166   21169
   21167   21166   21168   21168   21166   21169   21169   21172   21175
   21169   21172   21174   21169   21172   21173   21170   21169   21172
   21170   21169   21171   21171   21169   21172   21172   21175   21178
   21172   21175   21177   21172   21175   21176   21173   21172   21175
   21173   21172   21174   21174   21172   21175   21175   21178   21180
   21175   21178   21179   21176   21175   21178   21176   21175   21177
   21177   21175   21178   21178   21180   21182   21178   21180   21181
   21179   21178   21180   21180   21182   21185   21180   21182   21184
   21180   21182   21183   21181   21180   21182   21182   21185   21188
   21182   21185   21187   21182   21185   21186   21183   21182   21185
   21183   21182   21184   21184   21182   21185   21185   21188   21191
   21185   21188   21190   21185   21188   21189   21186   21185   21188
   21186   21185   21187   21187   21185   21188   21188   21191   21194
   21188   21191   21193   21188   21191   21192   21189   21188   21191
   21189   21188   21190   21190   21188   21191   21191   21194   21197
   21191   21194   21196   21191   21194   21195   21192   21191   21194
   21192   21191   21193   21193   21191   21194   21194   21197   21200
   21194   21197   21199   21194   21197   21198   21195   21194   21197
   21195   21194   21196   21196   21194   21197   21197   21200   21203
   21197   21200   21202   21197   21200   21201   21198   21197   21200
   21198   21197   21199   21199   21197   21200   21200   21203   21206
   21200   21203   21205   21200   21203   21204   21201   21200   21203
   21201   21200   21202   21202   21200   21203   21204   21203   21206
   21204   21203   21205   21205   21203   21206   21207   21210   21213
   21207   21210   21212   21207   21210   21211   21208   21207   21210
   21208   21207   21209   21209   21207   21210   21210   21213   21216
   21210   21213   21215   21210   21213   21214   21211   21210   21213
   21211   21210   21212   21212   21210   21213   21213   21216   21219
   21213   21216   21218   21213   21216   21217   21214   21213   21216
   21214   21213   21215   21215   21213   21216   21216   21219   21222
   21216   21219   21221   21216   21219   21220   21217   21216   21219
   21217   21216   21218   21218   21216   21219   21219   21222   21225
   21219   21222   21224   21219   21222   21223   21220   21219   21222
   21220   21219   21221   21221   21219   21222   21222   21225   21228
   21222   21225   21227   21222   21225   21226   21223   21222   21225
   21223   21222   21224   21224   21222   21225   21225   21228   21231
   21225   21228   21230   21225   21228   21229   21226   21225   21228
   21226   21225   21227   21227   21225   21228   21228   21231   21234
   21228   21231   21233   21228   21231   21232   21229   21228   21231
   21229   21228   21230   21230   21228   21231   21231   21234   21237
   21231   21234   21236   21231   21234   21235   21232   21231   21234
   21232   21231   21233   21233   21231   21234   21234   21237   21240
   21234   21237   21239   21234   21237   21238   21235   21234   21237
   21235   21234   21236   21236   21234   21237   21237   21240   21243
   21237   21240   21242   21237   21240   21241   21238   21237   21240
   21238   21237   21239   21239   21237   21240   21240   21243   21246
   21240   21243   21245   21240   21243   21244   21241   21240   21243
   21241   21240   21242   21242   21240   21243   21243   21246   21249
   21243   21246   21248   21243   21246   21247   21244   21243   21246
   21244   21243   21245   21245   21243   21246   21247   21246   21249
   21247   21246   21248   21248   21246   21249   21250   21259   21262
   21250   21259   21261   21250   21259   21260   21250   21255   21258
   21250   21255   21257   21250   21255   21256   21250   21251   21254
   21250   21251   21253   21250   21251   21252   21252   21251   21254
   21252   21251   21253   21253   21251   21254   21251   21250   21255
   21256   21255   21258   21256   21255   21257   21257   21255   21258
   21251   21250   21259   21255   21250   21259   21260   21259   21262
   21260   21259   21261   21261   21259   21262   21251   21250   21263
   21255   21250   21263   21259   21250   21263   21250   21263   21264
   21264   21263   21265   21250   21263   21265   21250   21263   21266
   21265   21263   21266   21264   21263   21266   21263   21266   21267
   21267   21266   21268   21263   21266   21268   21266   21273   21269
   21270   21269   21271   21271   21269   21272   21270   21269   21272
   21272   21269   21273   21271   21269   21273   21270   21269   21273
   21263   21266   21273   21268   21266   21273   21267   21266   21273
   21274   21279   21277   21269   21272   21274   21272   21274   21275
   21275   21274   21276   21272   21274   21276   21277   21329   21330
   21277   21329   21331   21278   21277   21329   21279   21277   21329
   21278   21277   21279   21272   21274   21279   21276   21274   21279
   21275   21274   21279   21277   21279   21280   21274   21279   21280
   21281   21285   21287   21281   21283   21284   21277   21279   21281
   21274   21279   21281   21280   21279   21281   21279   21281   21282
   21282   21281   21283   21279   21281   21283   21279   21281   21285
   21283   21281   21285   21282   21281   21285   21286   21285   21287
   21281   21285   21286   21285   21287   21288   21285   21287   21289
   21288   21287   21289   21287   21289   21290   21290   21289   21291
   21287   21289   21291   21287   21289   21292   21291   21289   21292
   21290   21289   21292   21289   21292   21293   21293   21292   21294
   21289   21292   21294   21289   21292   21295   21294   21292   21295
   21293   21292   21295   21292   21295   21296   21296   21295   21297
   21292   21295   21297   21292   21295   21298   21297   21295   21298
   21296   21295   21298   21295   21298   21299   21299   21298   21300
   21295   21298   21300   21295   21298   21301   21300   21298   21301
   21299   21298   21301   21298   21301   21302   21302   21301   21303
   21298   21301   21303   21298   21301   21304   21303   21301   21304
   21302   21301   21304   21301   21304   21305   21305   21304   21306
   21301   21304   21306   21301   21304   21307   21306   21304   21307
   21305   21304   21307   21304   21307   21308   21308   21307   21309
   21304   21307   21309   21304   21307   21310   21309   21307   21310
   21308   21307   21310   21307   21310   21311   21311   21310   21312
   21307   21310   21312   21307   21310   21313   21312   21310   21313
   21311   21310   21313   21310   21313   21314   21314   21313   21315
   21310   21313   21315   21310   21313   21316   21315   21313   21316
   21314   21313   21316   21313   21316   21317   21317   21316   21318
   21313   21316   21318   21313   21316   21319   21318   21316   21319
   21317   21316   21319   21316   21319   21320   21320   21319   21321
   21316   21319   21321   21316   21319   21322   21321   21319   21322
   21320   21319   21322   21319   21322   21323   21323   21322   21324
   21319   21322   21324   21319   21322   21325   21324   21322   21325
   21323   21322   21325   21322   21325   21326   21326   21325   21328
   21326   21325   21327   21322   21325   21327   21327   21325   21328
   21322   21325   21328   21329   21331   21334   21329   21331   21333
   21329   21331   21332   21331   21334   21337   21331   21334   21336
   21331   21334   21335   21330   21329   21331   21332   21331   21334
   21332   21331   21333   21333   21331   21334   21334   21337   21340
   21334   21337   21339   21334   21337   21338   21335   21334   21337
   21335   21334   21336   21336   21334   21337   21337   21340   21343
   21337   21340   21342   21337   21340   21341   21338   21337   21340
   21338   21337   21339   21339   21337   21340   21340   21343   21346
   21340   21343   21345   21340   21343   21344   21341   21340   21343
   21341   21340   21342   21342   21340   21343   21343   21346   21349
   21343   21346   21348   21343   21346   21347   21344   21343   21346
   21344   21343   21345   21345   21343   21346   21346   21349   21352
   21346   21349   21351   21346   21349   21350   21347   21346   21349
   21347   21346   21348   21348   21346   21349   21349   21352   21355
   21349   21352   21354   21349   21352   21353   21350   21349   21352
   21350   21349   21351   21351   21349   21352   21352   21355   21358
   21352   21355   21357   21352   21355   21356   21353   21352   21355
   21353   21352   21354   21354   21352   21355   21355   21358   21361
   21355   21358   21360   21355   21358   21359   21356   21355   21358
   21356   21355   21357   21357   21355   21358   21358   21361   21364
   21358   21361   21363   21358   21361   21362   21359   21358   21361
   21359   21358   21360   21360   21358   21361   21361   21364   21367
   21361   21364   21366   21361   21364   21365   21362   21361   21364
   21362   21361   21363   21363   21361   21364   21364   21367   21370
   21364   21367   21369   21364   21367   21368   21365   21364   21367
   21365   21364   21366   21366   21364   21367   21367   21370   21373
   21367   21370   21372   21367   21370   21371   21368   21367   21370
   21368   21367   21369   21369   21367   21370   21370   21373   21376
   21370   21373   21375   21370   21373   21374   21371   21370   21373
   21371   21370   21372   21372   21370   21373   21374   21373   21376
   21374   21373   21375   21375   21373   21376   21377   21423   21420
   21377   21423   21425   21377   21423   21424   21377   21381   21384
   21377   21381   21383   21377   21381   21382   21377   21379   21380
   21378   21377   21381   21378   21377   21423   21379   21377   21381
   21379   21377   21423   21378   21377   21379   21381   21384   21385
   21381   21384   21415   21382   21381   21384   21382   21381   21383
   21383   21381   21384   21384   21415   21413   21384   21415   21416
   21384   21415   21420   21384   21385   21387   21384   21385   21386
   21385   21387   21390   21385   21387   21389   21385   21387   21388
   21386   21385   21387   21387   21390   21392   21387   21390   21413
   21387   21390   21391   21388   21387   21390   21388   21387   21389
   21389   21387   21390   21390   21413   21410   21390   21413   21415
   21390   21413   21414   21390   21392   21394   21390   21392   21402
   21390   21392   21393   21391   21390   21392   21391   21390   21413
   21392   21402   21400   21392   21402   21403   21392   21402   21407
   21392   21394   21397   21392   21394   21396   21392   21394   21395
   21393   21392   21394   21393   21392   21402   21394   21397   21400
   21394   21397   21399   21394   21397   21398   21395   21394   21397
   21395   21394   21396   21396   21394   21397   21397   21400   21426
   21397   21400   21402   21397   21400   21401   21398   21397   21400
   21398   21397   21399   21399   21397   21400   21400   21426   21432
   21400   21426   21428   21400   21426   21427   21401   21400   21426
   21401   21400   21402   21402   21407   21410   21402   21407   21409
   21402   21407   21408   21402   21403   21406   21402   21403   21405
   21402   21403   21404   21402   21400   21426   21394   21392   21402
   21400   21402   21403   21404   21403   21406   21404   21403   21405
   21405   21403   21406   21407   21410   21413   21407   21410   21412
   21407   21410   21411   21400   21402   21407   21403   21402   21407
   21408   21407   21410   21408   21407   21409   21409   21407   21410
   21411   21410   21413   21411   21410   21412   21412   21410   21413
   21392   21390   21413   21410   21413   21414   21414   21413   21415
   21415   21416   21419   21415   21416   21418   21415   21416   21417
   21410   21413   21415   21385   21384   21415   21413   21415   21416
   21417   21416   21419   21417   21416   21418   21418   21416   21419
   21413   21415   21420   21416   21415   21420   21415   21420   21421
   21421   21420   21422   21415   21420   21422   21415   21420   21423
   21422   21420   21423   21421   21420   21423   21381   21377   21423
   21420   21423   21424   21424   21423   21425   21420   21423   21425
   21426   21432   21435   21426   21432   21434   21426   21432   21433
   21426   21428   21431   21426   21428   21430   21426   21428   21429
   21427   21426   21432   21427   21426   21428   21428   21426   21432
   21429   21428   21431   21429   21428   21430   21430   21428   21431
   21432   21435   21438   21432   21435   21437   21432   21435   21436
   21433   21432   21435   21433   21432   21434   21434   21432   21435
   21435   21438   21441   21435   21438   21440   21435   21438   21439
   21436   21435   21438   21436   21435   21437   21437   21435   21438
   21438   21441   21447   21438   21441   21443   21438   21441   21442
   21439   21438   21441   21439   21438   21440   21440   21438   21441
   21441   21447   21450   21441   21447   21449   21441   21447   21448
   21441   21443   21446   21441   21443   21445   21441   21443   21444
   21442   21441   21447   21442   21441   21443   21443   21441   21447
   21444   21443   21446   21444   21443   21445   21445   21443   21446
   21448   21447   21450   21448   21447   21449   21449   21447   21450
   21451   21497   21494   21451   21497   21499   21451   21497   21498
   21451   21455   21458   21451   21455   21457   21451   21455   21456
   21451   21453   21454   21452   21451   21455   21452   21451   21497
   21453   21451   21455   21453   21451   21497   21452   21451   21453
   21455   21458   21459   21455   21458   21489   21456   21455   21458
   21456   21455   21457   21457   21455   21458   21458   21489   21487
   21458   21489   21490   21458   21489   21494   21458   21459   21461
   21458   21459   21460   21459   21461   21464   21459   21461   21463
   21459   21461   21462   21460   21459   21461   21461   21464   21466
   21461   21464   21487   21461   21464   21465   21462   21461   21464
   21462   21461   21463   21463   21461   21464   21464   21487   21484
   21464   21487   21489   21464   21487   21488   21464   21466   21468
   21464   21466   21476   21464   21466   21467   21465   21464   21466
   21465   21464   21487   21466   21476   21474   21466   21476   21477
   21466   21476   21481   21466   21468   21471   21466   21468   21470
   21466   21468   21469   21467   21466   21468   21467   21466   21476
   21468   21471   21474   21468   21471   21473   21468   21471   21472
   21469   21468   21471   21469   21468   21470   21470   21468   21471
   21471   21474   21500   21471   21474   21476   21471   21474   21475
   21472   21471   21474   21472   21471   21473   21473   21471   21474
   21474   21500   21506   21474   21500   21502   21474   21500   21501
   21475   21474   21500   21475   21474   21476   21476   21481   21484
   21476   21481   21483   21476   21481   21482   21476   21477   21480
   21476   21477   21479   21476   21477   21478   21476   21474   21500
   21468   21466   21476   21474   21476   21477   21478   21477   21480
   21478   21477   21479   21479   21477   21480   21481   21484   21487
   21481   21484   21486   21481   21484   21485   21474   21476   21481
   21477   21476   21481   21482   21481   21484   21482   21481   21483
   21483   21481   21484   21485   21484   21487   21485   21484   21486
   21486   21484   21487   21466   21464   21487   21484   21487   21488
   21488   21487   21489   21489   21490   21493   21489   21490   21492
   21489   21490   21491   21484   21487   21489   21459   21458   21489
   21487   21489   21490   21491   21490   21493   21491   21490   21492
   21492   21490   21493   21487   21489   21494   21490   21489   21494
   21489   21494   21495   21495   21494   21496   21489   21494   21496
   21489   21494   21497   21496   21494   21497   21495   21494   21497
   21455   21451   21497   21494   21497   21498   21498   21497   21499
   21494   21497   21499   21500   21506   21509   21500   21506   21508
   21500   21506   21507   21500   21502   21505   21500   21502   21504
   21500   21502   21503   21501   21500   21506   21501   21500   21502
   21502   21500   21506   21503   21502   21505   21503   21502   21504
   21504   21502   21505   21506   21509   21512   21506   21509   21511
   21506   21509   21510   21507   21506   21509   21507   21506   21508
   21508   21506   21509   21509   21512   21515   21509   21512   21514
   21509   21512   21513   21510   21509   21512   21510   21509   21511
   21511   21509   21512   21512   21515   21521   21512   21515   21517
   21512   21515   21516   21513   21512   21515   21513   21512   21514
   21514   21512   21515   21515   21521   21524   21515   21521   21523
   21515   21521   21522   21515   21517   21520   21515   21517   21519
   21515   21517   21518   21516   21515   21521   21516   21515   21517
   21517   21515   21521   21518   21517   21520   21518   21517   21519
   21519   21517   21520   21522   21521   21524   21522   21521   21523
   21523   21521   21524   21525   21571   21568   21525   21571   21573
   21525   21571   21572   21525   21529   21532   21525   21529   21531
   21525   21529   21530   21525   21527   21528   21526   21525   21529
   21526   21525   21571   21527   21525   21529   21527   21525   21571
   21526   21525   21527   21529   21532   21533   21529   21532   21563
   21530   21529   21532   21530   21529   21531   21531   21529   21532
   21532   21563   21561   21532   21563   21564   21532   21563   21568
   21532   21533   21535   21532   21533   21534   21533   21535   21538
   21533   21535   21537   21533   21535   21536   21534   21533   21535
   21535   21538   21540   21535   21538   21561   21535   21538   21539
   21536   21535   21538   21536   21535   21537   21537   21535   21538
   21538   21561   21558   21538   21561   21563   21538   21561   21562
   21538   21540   21542   21538   21540   21550   21538   21540   21541
   21539   21538   21540   21539   21538   21561   21540   21550   21548
   21540   21550   21551   21540   21550   21555   21540   21542   21545
   21540   21542   21544   21540   21542   21543   21541   21540   21542
   21541   21540   21550   21542   21545   21548   21542   21545   21547
   21542   21545   21546   21543   21542   21545   21543   21542   21544
   21544   21542   21545   21545   21548   21574   21545   21548   21550
   21545   21548   21549   21546   21545   21548   21546   21545   21547
   21547   21545   21548   21548   21574   21580   21548   21574   21576
   21548   21574   21575   21549   21548   21574   21549   21548   21550
   21550   21555   21558   21550   21555   21557   21550   21555   21556
   21550   21551   21554   21550   21551   21553   21550   21551   21552
   21550   21548   21574   21542   21540   21550   21548   21550   21551
   21552   21551   21554   21552   21551   21553   21553   21551   21554
   21555   21558   21561   21555   21558   21560   21555   21558   21559
   21548   21550   21555   21551   21550   21555   21556   21555   21558
   21556   21555   21557   21557   21555   21558   21559   21558   21561
   21559   21558   21560   21560   21558   21561   21540   21538   21561
   21558   21561   21562   21562   21561   21563   21563   21564   21567
   21563   21564   21566   21563   21564   21565   21558   21561   21563
   21533   21532   21563   21561   21563   21564   21565   21564   21567
   21565   21564   21566   21566   21564   21567   21561   21563   21568
   21564   21563   21568   21563   21568   21569   21569   21568   21570
   21563   21568   21570   21563   21568   21571   21570   21568   21571
   21569   21568   21571   21529   21525   21571   21568   21571   21572
   21572   21571   21573   21568   21571   21573   21574   21580   21583
   21574   21580   21582   21574   21580   21581   21574   21576   21579
   21574   21576   21578   21574   21576   21577   21575   21574   21580
   21575   21574   21576   21576   21574   21580   21577   21576   21579
   21577   21576   21578   21578   21576   21579   21580   21583   21586
   21580   21583   21585   21580   21583   21584   21581   21580   21583
   21581   21580   21582   21582   21580   21583   21583   21586   21589
   21583   21586   21588   21583   21586   21587   21584   21583   21586
   21584   21583   21585   21585   21583   21586   21586   21589   21595
   21586   21589   21591   21586   21589   21590   21587   21586   21589
   21587   21586   21588   21588   21586   21589   21589   21595   21598
   21589   21595   21597   21589   21595   21596   21589   21591   21594
   21589   21591   21593   21589   21591   21592   21590   21589   21595
   21590   21589   21591   21591   21589   21595   21592   21591   21594
   21592   21591   21593   21593   21591   21594   21596   21595   21598
   21596   21595   21597   21597   21595   21598   21599   21645   21642
   21599   21645   21647   21599   21645   21646   21599   21603   21606
   21599   21603   21605   21599   21603   21604   21599   21601   21602
   21600   21599   21603   21600   21599   21645   21601   21599   21603
   21601   21599   21645   21600   21599   21601   21603   21606   21607
   21603   21606   21637   21604   21603   21606   21604   21603   21605
   21605   21603   21606   21606   21637   21635   21606   21637   21638
   21606   21637   21642   21606   21607   21609   21606   21607   21608
   21607   21609   21612   21607   21609   21611   21607   21609   21610
   21608   21607   21609   21609   21612   21614   21609   21612   21635
   21609   21612   21613   21610   21609   21612   21610   21609   21611
   21611   21609   21612   21612   21635   21632   21612   21635   21637
   21612   21635   21636   21612   21614   21616   21612   21614   21624
   21612   21614   21615   21613   21612   21614   21613   21612   21635
   21614   21624   21622   21614   21624   21625   21614   21624   21629
   21614   21616   21619   21614   21616   21618   21614   21616   21617
   21615   21614   21616   21615   21614   21624   21616   21619   21622
   21616   21619   21621   21616   21619   21620   21617   21616   21619
   21617   21616   21618   21618   21616   21619   21619   21622   21648
   21619   21622   21624   21619   21622   21623   21620   21619   21622
   21620   21619   21621   21621   21619   21622   21622   21648   21654
   21622   21648   21650   21622   21648   21649   21623   21622   21648
   21623   21622   21624   21624   21629   21632   21624   21629   21631
   21624   21629   21630   21624   21625   21628   21624   21625   21627
   21624   21625   21626   21624   21622   21648   21616   21614   21624
   21622   21624   21625   21626   21625   21628   21626   21625   21627
   21627   21625   21628   21629   21632   21635   21629   21632   21634
   21629   21632   21633   21622   21624   21629   21625   21624   21629
   21630   21629   21632   21630   21629   21631   21631   21629   21632
   21633   21632   21635   21633   21632   21634   21634   21632   21635
   21614   21612   21635   21632   21635   21636   21636   21635   21637
   21637   21638   21641   21637   21638   21640   21637   21638   21639
   21632   21635   21637   21607   21606   21637   21635   21637   21638
   21639   21638   21641   21639   21638   21640   21640   21638   21641
   21635   21637   21642   21638   21637   21642   21637   21642   21643
   21643   21642   21644   21637   21642   21644   21637   21642   21645
   21644   21642   21645   21643   21642   21645   21603   21599   21645
   21642   21645   21646   21646   21645   21647   21642   21645   21647
   21648   21654   21657   21648   21654   21656   21648   21654   21655
   21648   21650   21653   21648   21650   21652   21648   21650   21651
   21649   21648   21654   21649   21648   21650   21650   21648   21654
   21651   21650   21653   21651   21650   21652   21652   21650   21653
   21654   21657   21660   21654   21657   21659   21654   21657   21658
   21655   21654   21657   21655   21654   21656   21656   21654   21657
   21657   21660   21663   21657   21660   21662   21657   21660   21661
   21658   21657   21660   21658   21657   21659   21659   21657   21660
   21660   21663   21669   21660   21663   21665   21660   21663   21664
   21661   21660   21663   21661   21660   21662   21662   21660   21663
   21663   21669   21672   21663   21669   21671   21663   21669   21670
   21663   21665   21668   21663   21665   21667   21663   21665   21666
   21664   21663   21669   21664   21663   21665   21665   21663   21669
   21666   21665   21668   21666   21665   21667   21667   21665   21668
   21670   21669   21672   21670   21669   21671   21671   21669   21672
   21673   21719   21716   21673   21719   21721   21673   21719   21720
   21673   21677   21680   21673   21677   21679   21673   21677   21678
   21673   21675   21676   21674   21673   21677   21674   21673   21719
   21675   21673   21677   21675   21673   21719   21674   21673   21675
   21677   21680   21681   21677   21680   21711   21678   21677   21680
   21678   21677   21679   21679   21677   21680   21680   21711   21709
   21680   21711   21712   21680   21711   21716   21680   21681   21683
   21680   21681   21682   21681   21683   21686   21681   21683   21685
   21681   21683   21684   21682   21681   21683   21683   21686   21688
   21683   21686   21709   21683   21686   21687   21684   21683   21686
   21684   21683   21685   21685   21683   21686   21686   21709   21706
   21686   21709   21711   21686   21709   21710   21686   21688   21690
   21686   21688   21698   21686   21688   21689   21687   21686   21688
   21687   21686   21709   21688   21698   21696   21688   21698   21699
   21688   21698   21703   21688   21690   21693   21688   21690   21692
   21688   21690   21691   21689   21688   21690   21689   21688   21698
   21690   21693   21696   21690   21693   21695   21690   21693   21694
   21691   21690   21693   21691   21690   21692   21692   21690   21693
   21693   21696   21722   21693   21696   21698   21693   21696   21697
   21694   21693   21696   21694   21693   21695   21695   21693   21696
   21696   21722   21728   21696   21722   21724   21696   21722   21723
   21697   21696   21722   21697   21696   21698   21698   21703   21706
   21698   21703   21705   21698   21703   21704   21698   21699   21702
   21698   21699   21701   21698   21699   21700   21698   21696   21722
   21690   21688   21698   21696   21698   21699   21700   21699   21702
   21700   21699   21701   21701   21699   21702   21703   21706   21709
   21703   21706   21708   21703   21706   21707   21696   21698   21703
   21699   21698   21703   21704   21703   21706   21704   21703   21705
   21705   21703   21706   21707   21706   21709   21707   21706   21708
   21708   21706   21709   21688   21686   21709   21706   21709   21710
   21710   21709   21711   21711   21712   21715   21711   21712   21714
   21711   21712   21713   21706   21709   21711   21681   21680   21711
   21709   21711   21712   21713   21712   21715   21713   21712   21714
   21714   21712   21715   21709   21711   21716   21712   21711   21716
   21711   21716   21717   21717   21716   21718   21711   21716   21718
   21711   21716   21719   21718   21716   21719   21717   21716   21719
   21677   21673   21719   21716   21719   21720   21720   21719   21721
   21716   21719   21721   21722   21728   21731   21722   21728   21730
   21722   21728   21729   21722   21724   21727   21722   21724   21726
   21722   21724   21725   21723   21722   21728   21723   21722   21724
   21724   21722   21728   21725   21724   21727   21725   21724   21726
   21726   21724   21727   21728   21731   21734   21728   21731   21733
   21728   21731   21732   21729   21728   21731   21729   21728   21730
   21730   21728   21731   21731   21734   21737   21731   21734   21736
   21731   21734   21735   21732   21731   21734   21732   21731   21733
   21733   21731   21734   21734   21737   21743   21734   21737   21739
   21734   21737   21738   21735   21734   21737   21735   21734   21736
   21736   21734   21737   21737   21743   21746   21737   21743   21745
   21737   21743   21744   21737   21739   21742   21737   21739   21741
   21737   21739   21740   21738   21737   21743   21738   21737   21739
   21739   21737   21743   21740   21739   21742   21740   21739   21741
   21741   21739   21742   21744   21743   21746   21744   21743   21745
   21745   21743   21746   21747   21793   21790   21747   21793   21795
   21747   21793   21794   21747   21751   21754   21747   21751   21753
   21747   21751   21752   21747   21749   21750   21748   21747   21751
   21748   21747   21793   21749   21747   21751   21749   21747   21793
   21748   21747   21749   21751   21754   21755   21751   21754   21785
   21752   21751   21754   21752   21751   21753   21753   21751   21754
   21754   21785   21783   21754   21785   21786   21754   21785   21790
   21754   21755   21757   21754   21755   21756   21755   21757   21760
   21755   21757   21759   21755   21757   21758   21756   21755   21757
   21757   21760   21762   21757   21760   21783   21757   21760   21761
   21758   21757   21760   21758   21757   21759   21759   21757   21760
   21760   21783   21780   21760   21783   21785   21760   21783   21784
   21760   21762   21764   21760   21762   21772   21760   21762   21763
   21761   21760   21762   21761   21760   21783   21762   21772   21770
   21762   21772   21773   21762   21772   21777   21762   21764   21767
   21762   21764   21766   21762   21764   21765   21763   21762   21764
   21763   21762   21772   21764   21767   21770   21764   21767   21769
   21764   21767   21768   21765   21764   21767   21765   21764   21766
   21766   21764   21767   21767   21770   21796   21767   21770   21772
   21767   21770   21771   21768   21767   21770   21768   21767   21769
   21769   21767   21770   21770   21796   21802   21770   21796   21798
   21770   21796   21797   21771   21770   21796   21771   21770   21772
   21772   21777   21780   21772   21777   21779   21772   21777   21778
   21772   21773   21776   21772   21773   21775   21772   21773   21774
   21772   21770   21796   21764   21762   21772   21770   21772   21773
   21774   21773   21776   21774   21773   21775   21775   21773   21776
   21777   21780   21783   21777   21780   21782   21777   21780   21781
   21770   21772   21777   21773   21772   21777   21778   21777   21780
   21778   21777   21779   21779   21777   21780   21781   21780   21783
   21781   21780   21782   21782   21780   21783   21762   21760   21783
   21780   21783   21784   21784   21783   21785   21785   21786   21789
   21785   21786   21788   21785   21786   21787   21780   21783   21785
   21755   21754   21785   21783   21785   21786   21787   21786   21789
   21787   21786   21788   21788   21786   21789   21783   21785   21790
   21786   21785   21790   21785   21790   21791   21791   21790   21792
   21785   21790   21792   21785   21790   21793   21792   21790   21793
   21791   21790   21793   21751   21747   21793   21790   21793   21794
   21794   21793   21795   21790   21793   21795   21796   21802   21805
   21796   21802   21804   21796   21802   21803   21796   21798   21801
   21796   21798   21800   21796   21798   21799   21797   21796   21802
   21797   21796   21798   21798   21796   21802   21799   21798   21801
   21799   21798   21800   21800   21798   21801   21802   21805   21808
   21802   21805   21807   21802   21805   21806   21803   21802   21805
   21803   21802   21804   21804   21802   21805   21805   21808   21811
   21805   21808   21810   21805   21808   21809   21806   21805   21808
   21806   21805   21807   21807   21805   21808   21808   21811   21817
   21808   21811   21813   21808   21811   21812   21809   21808   21811
   21809   21808   21810   21810   21808   21811   21811   21817   21820
   21811   21817   21819   21811   21817   21818   21811   21813   21816
   21811   21813   21815   21811   21813   21814   21812   21811   21817
   21812   21811   21813   21813   21811   21817   21814   21813   21816
   21814   21813   21815   21815   21813   21816   21818   21817   21820
   21818   21817   21819   21819   21817   21820   21821   21867   21864
   21821   21867   21869   21821   21867   21868   21821   21825   21828
   21821   21825   21827   21821   21825   21826   21821   21823   21824
   21822   21821   21825   21822   21821   21867   21823   21821   21825
   21823   21821   21867   21822   21821   21823   21825   21828   21829
   21825   21828   21859   21826   21825   21828   21826   21825   21827
   21827   21825   21828   21828   21859   21857   21828   21859   21860
   21828   21859   21864   21828   21829   21831   21828   21829   21830
   21829   21831   21834   21829   21831   21833   21829   21831   21832
   21830   21829   21831   21831   21834   21836   21831   21834   21857
   21831   21834   21835   21832   21831   21834   21832   21831   21833
   21833   21831   21834   21834   21857   21854   21834   21857   21859
   21834   21857   21858   21834   21836   21838   21834   21836   21846
   21834   21836   21837   21835   21834   21836   21835   21834   21857
   21836   21846   21844   21836   21846   21847   21836   21846   21851
   21836   21838   21841   21836   21838   21840   21836   21838   21839
   21837   21836   21838   21837   21836   21846   21838   21841   21844
   21838   21841   21843   21838   21841   21842   21839   21838   21841
   21839   21838   21840   21840   21838   21841   21841   21844   21870
   21841   21844   21846   21841   21844   21845   21842   21841   21844
   21842   21841   21843   21843   21841   21844   21844   21870   21876
   21844   21870   21872   21844   21870   21871   21845   21844   21870
   21845   21844   21846   21846   21851   21854   21846   21851   21853
   21846   21851   21852   21846   21847   21850   21846   21847   21849
   21846   21847   21848   21846   21844   21870   21838   21836   21846
   21844   21846   21847   21848   21847   21850   21848   21847   21849
   21849   21847   21850   21851   21854   21857   21851   21854   21856
   21851   21854   21855   21844   21846   21851   21847   21846   21851
   21852   21851   21854   21852   21851   21853   21853   21851   21854
   21855   21854   21857   21855   21854   21856   21856   21854   21857
   21836   21834   21857   21854   21857   21858   21858   21857   21859
   21859   21860   21863   21859   21860   21862   21859   21860   21861
   21854   21857   21859   21829   21828   21859   21857   21859   21860
   21861   21860   21863   21861   21860   21862   21862   21860   21863
   21857   21859   21864   21860   21859   21864   21859   21864   21865
   21865   21864   21866   21859   21864   21866   21859   21864   21867
   21866   21864   21867   21865   21864   21867   21825   21821   21867
   21864   21867   21868   21868   21867   21869   21864   21867   21869
   21870   21876   21879   21870   21876   21878   21870   21876   21877
   21870   21872   21875   21870   21872   21874   21870   21872   21873
   21871   21870   21876   21871   21870   21872   21872   21870   21876
   21873   21872   21875   21873   21872   21874   21874   21872   21875
   21876   21879   21882   21876   21879   21881   21876   21879   21880
   21877   21876   21879   21877   21876   21878   21878   21876   21879
   21879   21882   21885   21879   21882   21884   21879   21882   21883
   21880   21879   21882   21880   21879   21881   21881   21879   21882
   21882   21885   21891   21882   21885   21887   21882   21885   21886
   21883   21882   21885   21883   21882   21884   21884   21882   21885
   21885   21891   21894   21885   21891   21893   21885   21891   21892
   21885   21887   21890   21885   21887   21889   21885   21887   21888
   21886   21885   21891   21886   21885   21887   21887   21885   21891
   21888   21887   21890   21888   21887   21889   21889   21887   21890
   21892   21891   21894   21892   21891   21893   21893   21891   21894
   21895   21941   21938   21895   21941   21943   21895   21941   21942
   21895   21899   21902   21895   21899   21901   21895   21899   21900
   21895   21897   21898   21896   21895   21899   21896   21895   21941
   21897   21895   21899   21897   21895   21941   21896   21895   21897
   21899   21902   21903   21899   21902   21933   21900   21899   21902
   21900   21899   21901   21901   21899   21902   21902   21933   21931
   21902   21933   21934   21902   21933   21938   21902   21903   21905
   21902   21903   21904   21903   21905   21908   21903   21905   21907
   21903   21905   21906   21904   21903   21905   21905   21908   21910
   21905   21908   21931   21905   21908   21909   21906   21905   21908
   21906   21905   21907   21907   21905   21908   21908   21931   21928
   21908   21931   21933   21908   21931   21932   21908   21910   21912
   21908   21910   21920   21908   21910   21911   21909   21908   21910
   21909   21908   21931   21910   21920   21918   21910   21920   21921
   21910   21920   21925   21910   21912   21915   21910   21912   21914
   21910   21912   21913   21911   21910   21912   21911   21910   21920
   21912   21915   21918   21912   21915   21917   21912   21915   21916
   21913   21912   21915   21913   21912   21914   21914   21912   21915
   21915   21918   21944   21915   21918   21920   21915   21918   21919
   21916   21915   21918   21916   21915   21917   21917   21915   21918
   21918   21944   21950   21918   21944   21946   21918   21944   21945
   21919   21918   21944   21919   21918   21920   21920   21925   21928
   21920   21925   21927   21920   21925   21926   21920   21921   21924
   21920   21921   21923   21920   21921   21922   21920   21918   21944
   21912   21910   21920   21918   21920   21921   21922   21921   21924
   21922   21921   21923   21923   21921   21924   21925   21928   21931
   21925   21928   21930   21925   21928   21929   21918   21920   21925
   21921   21920   21925   21926   21925   21928   21926   21925   21927
   21927   21925   21928   21929   21928   21931   21929   21928   21930
   21930   21928   21931   21910   21908   21931   21928   21931   21932
   21932   21931   21933   21933   21934   21937   21933   21934   21936
   21933   21934   21935   21928   21931   21933   21903   21902   21933
   21931   21933   21934   21935   21934   21937   21935   21934   21936
   21936   21934   21937   21931   21933   21938   21934   21933   21938
   21933   21938   21939   21939   21938   21940   21933   21938   21940
   21933   21938   21941   21940   21938   21941   21939   21938   21941
   21899   21895   21941   21938   21941   21942   21942   21941   21943
   21938   21941   21943   21944   21950   21953   21944   21950   21952
   21944   21950   21951   21944   21946   21949   21944   21946   21948
   21944   21946   21947   21945   21944   21950   21945   21944   21946
   21946   21944   21950   21947   21946   21949   21947   21946   21948
   21948   21946   21949   21950   21953   21956   21950   21953   21955
   21950   21953   21954   21951   21950   21953   21951   21950   21952
   21952   21950   21953   21953   21956   21959   21953   21956   21958
   21953   21956   21957   21954   21953   21956   21954   21953   21955
   21955   21953   21956   21956   21959   21965   21956   21959   21961
   21956   21959   21960   21957   21956   21959   21957   21956   21958
   21958   21956   21959   21959   21965   21968   21959   21965   21967
   21959   21965   21966   21959   21961   21964   21959   21961   21963
   21959   21961   21962   21960   21959   21965   21960   21959   21961
   21961   21959   21965   21962   21961   21964   21962   21961   21963
   21963   21961   21964   21966   21965   21968   21966   21965   21967
   21967   21965   21968   21969   22015   22012   21969   22015   22017
   21969   22015   22016   21969   21973   21976   21969   21973   21975
   21969   21973   21974   21969   21971   21972   21970   21969   21973
   21970   21969   22015   21971   21969   21973   21971   21969   22015
   21970   21969   21971   21973   21976   21977   21973   21976   22007
   21974   21973   21976   21974   21973   21975   21975   21973   21976
   21976   22007   22005   21976   22007   22008   21976   22007   22012
   21976   21977   21979   21976   21977   21978   21977   21979   21982
   21977   21979   21981   21977   21979   21980   21978   21977   21979
   21979   21982   21984   21979   21982   22005   21979   21982   21983
   21980   21979   21982   21980   21979   21981   21981   21979   21982
   21982   22005   22002   21982   22005   22007   21982   22005   22006
   21982   21984   21986   21982   21984   21994   21982   21984   21985
   21983   21982   21984   21983   21982   22005   21984   21994   21992
   21984   21994   21995   21984   21994   21999   21984   21986   21989
   21984   21986   21988   21984   21986   21987   21985   21984   21986
   21985   21984   21994   21986   21989   21992   21986   21989   21991
   21986   21989   21990   21987   21986   21989   21987   21986   21988
   21988   21986   21989   21989   21992   22018   21989   21992   21994
   21989   21992   21993   21990   21989   21992   21990   21989   21991
   21991   21989   21992   21992   22018   22024   21992   22018   22020
   21992   22018   22019   21993   21992   22018   21993   21992   21994
   21994   21999   22002   21994   21999   22001   21994   21999   22000
   21994   21995   21998   21994   21995   21997   21994   21995   21996
   21994   21992   22018   21986   21984   21994   21992   21994   21995
   21996   21995   21998   21996   21995   21997   21997   21995   21998
   21999   22002   22005   21999   22002   22004   21999   22002   22003
   21992   21994   21999   21995   21994   21999   22000   21999   22002
   22000   21999   22001   22001   21999   22002   22003   22002   22005
   22003   22002   22004   22004   22002   22005   21984   21982   22005
   22002   22005   22006   22006   22005   22007   22007   22008   22011
   22007   22008   22010   22007   22008   22009   22002   22005   22007
   21977   21976   22007   22005   22007   22008   22009   22008   22011
   22009   22008   22010   22010   22008   22011   22005   22007   22012
   22008   22007   22012   22007   22012   22013   22013   22012   22014
   22007   22012   22014   22007   22012   22015   22014   22012   22015
   22013   22012   22015   21973   21969   22015   22012   22015   22016
   22016   22015   22017   22012   22015   22017   22018   22024   22027
   22018   22024   22026   22018   22024   22025   22018   22020   22023
   22018   22020   22022   22018   22020   22021   22019   22018   22024
   22019   22018   22020   22020   22018   22024   22021   22020   22023
   22021   22020   22022   22022   22020   22023   22024   22027   22030
   22024   22027   22029   22024   22027   22028   22025   22024   22027
   22025   22024   22026   22026   22024   22027   22027   22030   22033
   22027   22030   22032   22027   22030   22031   22028   22027   22030
   22028   22027   22029   22029   22027   22030   22030   22033   22039
   22030   22033   22035   22030   22033   22034   22031   22030   22033
   22031   22030   22032   22032   22030   22033   22033   22039   22042
   22033   22039   22041   22033   22039   22040   22033   22035   22038
   22033   22035   22037   22033   22035   22036   22034   22033   22039
   22034   22033   22035   22035   22033   22039   22036   22035   22038
   22036   22035   22037   22037   22035   22038   22040   22039   22042
   22040   22039   22041   22041   22039   22042   22043   22089   22086
   22043   22089   22091   22043   22089   22090   22043   22047   22050
   22043   22047   22049   22043   22047   22048   22043   22045   22046
   22044   22043   22047   22044   22043   22089   22045   22043   22047
   22045   22043   22089   22044   22043   22045   22047   22050   22051
   22047   22050   22081   22048   22047   22050   22048   22047   22049
   22049   22047   22050   22050   22081   22079   22050   22081   22082
   22050   22081   22086   22050   22051   22053   22050   22051   22052
   22051   22053   22056   22051   22053   22055   22051   22053   22054
   22052   22051   22053   22053   22056   22058   22053   22056   22079
   22053   22056   22057   22054   22053   22056   22054   22053   22055
   22055   22053   22056   22056   22079   22076   22056   22079   22081
   22056   22079   22080   22056   22058   22060   22056   22058   22068
   22056   22058   22059   22057   22056   22058   22057   22056   22079
   22058   22068   22066   22058   22068   22069   22058   22068   22073
   22058   22060   22063   22058   22060   22062   22058   22060   22061
   22059   22058   22060   22059   22058   22068   22060   22063   22066
   22060   22063   22065   22060   22063   22064   22061   22060   22063
   22061   22060   22062   22062   22060   22063   22063   22066   22092
   22063   22066   22068   22063   22066   22067   22064   22063   22066
   22064   22063   22065   22065   22063   22066   22066   22092   22098
   22066   22092   22094   22066   22092   22093   22067   22066   22092
   22067   22066   22068   22068   22073   22076   22068   22073   22075
   22068   22073   22074   22068   22069   22072   22068   22069   22071
   22068   22069   22070   22068   22066   22092   22060   22058   22068
   22066   22068   22069   22070   22069   22072   22070   22069   22071
   22071   22069   22072   22073   22076   22079   22073   22076   22078
   22073   22076   22077   22066   22068   22073   22069   22068   22073
   22074   22073   22076   22074   22073   22075   22075   22073   22076
   22077   22076   22079   22077   22076   22078   22078   22076   22079
   22058   22056   22079   22076   22079   22080   22080   22079   22081
   22081   22082   22085   22081   22082   22084   22081   22082   22083
   22076   22079   22081   22051   22050   22081   22079   22081   22082
   22083   22082   22085   22083   22082   22084   22084   22082   22085
   22079   22081   22086   22082   22081   22086   22081   22086   22087
   22087   22086   22088   22081   22086   22088   22081   22086   22089
   22088   22086   22089   22087   22086   22089   22047   22043   22089
   22086   22089   22090   22090   22089   22091   22086   22089   22091
   22092   22098   22101   22092   22098   22100   22092   22098   22099
   22092   22094   22097   22092   22094   22096   22092   22094   22095
   22093   22092   22098   22093   22092   22094   22094   22092   22098
   22095   22094   22097   22095   22094   22096   22096   22094   22097
   22098   22101   22104   22098   22101   22103   22098   22101   22102
   22099   22098   22101   22099   22098   22100   22100   22098   22101
   22101   22104   22107   22101   22104   22106   22101   22104   22105
   22102   22101   22104   22102   22101   22103   22103   22101   22104
   22104   22107   22113   22104   22107   22109   22104   22107   22108
   22105   22104   22107   22105   22104   22106   22106   22104   22107
   22107   22113   22116   22107   22113   22115   22107   22113   22114
   22107   22109   22112   22107   22109   22111   22107   22109   22110
   22108   22107   22113   22108   22107   22109   22109   22107   22113
   22110   22109   22112   22110   22109   22111   22111   22109   22112
   22114   22113   22116   22114   22113   22115   22115   22113   22116
   22117   22163   22160   22117   22163   22165   22117   22163   22164
   22117   22121   22124   22117   22121   22123   22117   22121   22122
   22117   22119   22120   22118   22117   22121   22118   22117   22163
   22119   22117   22121   22119   22117   22163   22118   22117   22119
   22121   22124   22125   22121   22124   22155   22122   22121   22124
   22122   22121   22123   22123   22121   22124   22124   22155   22153
   22124   22155   22156   22124   22155   22160   22124   22125   22127
   22124   22125   22126   22125   22127   22130   22125   22127   22129
   22125   22127   22128   22126   22125   22127   22127   22130   22132
   22127   22130   22153   22127   22130   22131   22128   22127   22130
   22128   22127   22129   22129   22127   22130   22130   22153   22150
   22130   22153   22155   22130   22153   22154   22130   22132   22134
   22130   22132   22142   22130   22132   22133   22131   22130   22132
   22131   22130   22153   22132   22142   22140   22132   22142   22143
   22132   22142   22147   22132   22134   22137   22132   22134   22136
   22132   22134   22135   22133   22132   22134   22133   22132   22142
   22134   22137   22140   22134   22137   22139   22134   22137   22138
   22135   22134   22137   22135   22134   22136   22136   22134   22137
   22137   22140   22166   22137   22140   22142   22137   22140   22141
   22138   22137   22140   22138   22137   22139   22139   22137   22140
   22140   22166   22172   22140   22166   22168   22140   22166   22167
   22141   22140   22166   22141   22140   22142   22142   22147   22150
   22142   22147   22149   22142   22147   22148   22142   22143   22146
   22142   22143   22145   22142   22143   22144   22142   22140   22166
   22134   22132   22142   22140   22142   22143   22144   22143   22146
   22144   22143   22145   22145   22143   22146   22147   22150   22153
   22147   22150   22152   22147   22150   22151   22140   22142   22147
   22143   22142   22147   22148   22147   22150   22148   22147   22149
   22149   22147   22150   22151   22150   22153   22151   22150   22152
   22152   22150   22153   22132   22130   22153   22150   22153   22154
   22154   22153   22155   22155   22156   22159   22155   22156   22158
   22155   22156   22157   22150   22153   22155   22125   22124   22155
   22153   22155   22156   22157   22156   22159   22157   22156   22158
   22158   22156   22159   22153   22155   22160   22156   22155   22160
   22155   22160   22161   22161   22160   22162   22155   22160   22162
   22155   22160   22163   22162   22160   22163   22161   22160   22163
   22121   22117   22163   22160   22163   22164   22164   22163   22165
   22160   22163   22165   22166   22172   22175   22166   22172   22174
   22166   22172   22173   22166   22168   22171   22166   22168   22170
   22166   22168   22169   22167   22166   22172   22167   22166   22168
   22168   22166   22172   22169   22168   22171   22169   22168   22170
   22170   22168   22171   22172   22175   22178   22172   22175   22177
   22172   22175   22176   22173   22172   22175   22173   22172   22174
   22174   22172   22175   22175   22178   22181   22175   22178   22180
   22175   22178   22179   22176   22175   22178   22176   22175   22177
   22177   22175   22178   22178   22181   22187   22178   22181   22183
   22178   22181   22182   22179   22178   22181   22179   22178   22180
   22180   22178   22181   22181   22187   22190   22181   22187   22189
   22181   22187   22188   22181   22183   22186   22181   22183   22185
   22181   22183   22184   22182   22181   22187   22182   22181   22183
   22183   22181   22187   22184   22183   22186   22184   22183   22185
   22185   22183   22186   22188   22187   22190   22188   22187   22189
   22189   22187   22190   22191   22237   22234   22191   22237   22239
   22191   22237   22238   22191   22195   22198   22191   22195   22197
   22191   22195   22196   22191   22193   22194   22192   22191   22195
   22192   22191   22237   22193   22191   22195   22193   22191   22237
   22192   22191   22193   22195   22198   22199   22195   22198   22229
   22196   22195   22198   22196   22195   22197   22197   22195   22198
   22198   22229   22227   22198   22229   22230   22198   22229   22234
   22198   22199   22201   22198   22199   22200   22199   22201   22204
   22199   22201   22203   22199   22201   22202   22200   22199   22201
   22201   22204   22206   22201   22204   22227   22201   22204   22205
   22202   22201   22204   22202   22201   22203   22203   22201   22204
   22204   22227   22224   22204   22227   22229   22204   22227   22228
   22204   22206   22208   22204   22206   22216   22204   22206   22207
   22205   22204   22206   22205   22204   22227   22206   22216   22214
   22206   22216   22217   22206   22216   22221   22206   22208   22211
   22206   22208   22210   22206   22208   22209   22207   22206   22208
   22207   22206   22216   22208   22211   22214   22208   22211   22213
   22208   22211   22212   22209   22208   22211   22209   22208   22210
   22210   22208   22211   22211   22214   22240   22211   22214   22216
   22211   22214   22215   22212   22211   22214   22212   22211   22213
   22213   22211   22214   22214   22240   22246   22214   22240   22242
   22214   22240   22241   22215   22214   22240   22215   22214   22216
   22216   22221   22224   22216   22221   22223   22216   22221   22222
   22216   22217   22220   22216   22217   22219   22216   22217   22218
   22216   22214   22240   22208   22206   22216   22214   22216   22217
   22218   22217   22220   22218   22217   22219   22219   22217   22220
   22221   22224   22227   22221   22224   22226   22221   22224   22225
   22214   22216   22221   22217   22216   22221   22222   22221   22224
   22222   22221   22223   22223   22221   22224   22225   22224   22227
   22225   22224   22226   22226   22224   22227   22206   22204   22227
   22224   22227   22228   22228   22227   22229   22229   22230   22233
   22229   22230   22232   22229   22230   22231   22224   22227   22229
   22199   22198   22229   22227   22229   22230   22231   22230   22233
   22231   22230   22232   22232   22230   22233   22227   22229   22234
   22230   22229   22234   22229   22234   22235   22235   22234   22236
   22229   22234   22236   22229   22234   22237   22236   22234   22237
   22235   22234   22237   22195   22191   22237   22234   22237   22238
   22238   22237   22239   22234   22237   22239   22240   22246   22249
   22240   22246   22248   22240   22246   22247   22240   22242   22245
   22240   22242   22244   22240   22242   22243   22241   22240   22246
   22241   22240   22242   22242   22240   22246   22243   22242   22245
   22243   22242   22244   22244   22242   22245   22246   22249   22252
   22246   22249   22251   22246   22249   22250   22247   22246   22249
   22247   22246   22248   22248   22246   22249   22249   22252   22255
   22249   22252   22254   22249   22252   22253   22250   22249   22252
   22250   22249   22251   22251   22249   22252   22252   22255   22261
   22252   22255   22257   22252   22255   22256   22253   22252   22255
   22253   22252   22254   22254   22252   22255   22255   22261   22264
   22255   22261   22263   22255   22261   22262   22255   22257   22260
   22255   22257   22259   22255   22257   22258   22256   22255   22261
   22256   22255   22257   22257   22255   22261   22258   22257   22260
   22258   22257   22259   22259   22257   22260   22262   22261   22264
   22262   22261   22263   22263   22261   22264   22265   22311   22308
   22265   22311   22313   22265   22311   22312   22265   22269   22272
   22265   22269   22271   22265   22269   22270   22265   22267   22268
   22266   22265   22269   22266   22265   22311   22267   22265   22269
   22267   22265   22311   22266   22265   22267   22269   22272   22273
   22269   22272   22303   22270   22269   22272   22270   22269   22271
   22271   22269   22272   22272   22303   22301   22272   22303   22304
   22272   22303   22308   22272   22273   22275   22272   22273   22274
   22273   22275   22278   22273   22275   22277   22273   22275   22276
   22274   22273   22275   22275   22278   22280   22275   22278   22301
   22275   22278   22279   22276   22275   22278   22276   22275   22277
   22277   22275   22278   22278   22301   22298   22278   22301   22303
   22278   22301   22302   22278   22280   22282   22278   22280   22290
   22278   22280   22281   22279   22278   22280   22279   22278   22301
   22280   22290   22288   22280   22290   22291   22280   22290   22295
   22280   22282   22285   22280   22282   22284   22280   22282   22283
   22281   22280   22282   22281   22280   22290   22282   22285   22288
   22282   22285   22287   22282   22285   22286   22283   22282   22285
   22283   22282   22284   22284   22282   22285   22285   22288   22314
   22285   22288   22290   22285   22288   22289   22286   22285   22288
   22286   22285   22287   22287   22285   22288   22288   22314   22320
   22288   22314   22316   22288   22314   22315   22289   22288   22314
   22289   22288   22290   22290   22295   22298   22290   22295   22297
   22290   22295   22296   22290   22291   22294   22290   22291   22293
   22290   22291   22292   22290   22288   22314   22282   22280   22290
   22288   22290   22291   22292   22291   22294   22292   22291   22293
   22293   22291   22294   22295   22298   22301   22295   22298   22300
   22295   22298   22299   22288   22290   22295   22291   22290   22295
   22296   22295   22298   22296   22295   22297   22297   22295   22298
   22299   22298   22301   22299   22298   22300   22300   22298   22301
   22280   22278   22301   22298   22301   22302   22302   22301   22303
   22303   22304   22307   22303   22304   22306   22303   22304   22305
   22298   22301   22303   22273   22272   22303   22301   22303   22304
   22305   22304   22307   22305   22304   22306   22306   22304   22307
   22301   22303   22308   22304   22303   22308   22303   22308   22309
   22309   22308   22310   22303   22308   22310   22303   22308   22311
   22310   22308   22311   22309   22308   22311   22269   22265   22311
   22308   22311   22312   22312   22311   22313   22308   22311   22313
   22314   22320   22323   22314   22320   22322   22314   22320   22321
   22314   22316   22319   22314   22316   22318   22314   22316   22317
   22315   22314   22320   22315   22314   22316   22316   22314   22320
   22317   22316   22319   22317   22316   22318   22318   22316   22319
   22320   22323   22326   22320   22323   22325   22320   22323   22324
   22321   22320   22323   22321   22320   22322   22322   22320   22323
   22323   22326   22329   22323   22326   22328   22323   22326   22327
   22324   22323   22326   22324   22323   22325   22325   22323   22326
   22326   22329   22335   22326   22329   22331   22326   22329   22330
   22327   22326   22329   22327   22326   22328   22328   22326   22329
   22329   22335   22338   22329   22335   22337   22329   22335   22336
   22329   22331   22334   22329   22331   22333   22329   22331   22332
   22330   22329   22335   22330   22329   22331   22331   22329   22335
   22332   22331   22334   22332   22331   22333   22333   22331   22334
   22336   22335   22338   22336   22335   22337   22337   22335   22338
   22339   22385   22382   22339   22385   22387   22339   22385   22386
   22339   22343   22346   22339   22343   22345   22339   22343   22344
   22339   22341   22342   22340   22339   22343   22340   22339   22385
   22341   22339   22343   22341   22339   22385   22340   22339   22341
   22343   22346   22347   22343   22346   22377   22344   22343   22346
   22344   22343   22345   22345   22343   22346   22346   22377   22375
   22346   22377   22378   22346   22377   22382   22346   22347   22349
   22346   22347   22348   22347   22349   22352   22347   22349   22351
   22347   22349   22350   22348   22347   22349   22349   22352   22354
   22349   22352   22375   22349   22352   22353   22350   22349   22352
   22350   22349   22351   22351   22349   22352   22352   22375   22372
   22352   22375   22377   22352   22375   22376   22352   22354   22356
   22352   22354   22364   22352   22354   22355   22353   22352   22354
   22353   22352   22375   22354   22364   22362   22354   22364   22365
   22354   22364   22369   22354   22356   22359   22354   22356   22358
   22354   22356   22357   22355   22354   22356   22355   22354   22364
   22356   22359   22362   22356   22359   22361   22356   22359   22360
   22357   22356   22359   22357   22356   22358   22358   22356   22359
   22359   22362   22388   22359   22362   22364   22359   22362   22363
   22360   22359   22362   22360   22359   22361   22361   22359   22362
   22362   22388   22394   22362   22388   22390   22362   22388   22389
   22363   22362   22388   22363   22362   22364   22364   22369   22372
   22364   22369   22371   22364   22369   22370   22364   22365   22368
   22364   22365   22367   22364   22365   22366   22364   22362   22388
   22356   22354   22364   22362   22364   22365   22366   22365   22368
   22366   22365   22367   22367   22365   22368   22369   22372   22375
   22369   22372   22374   22369   22372   22373   22362   22364   22369
   22365   22364   22369   22370   22369   22372   22370   22369   22371
   22371   22369   22372   22373   22372   22375   22373   22372   22374
   22374   22372   22375   22354   22352   22375   22372   22375   22376
   22376   22375   22377   22377   22378   22381   22377   22378   22380
   22377   22378   22379   22372   22375   22377   22347   22346   22377
   22375   22377   22378   22379   22378   22381   22379   22378   22380
   22380   22378   22381   22375   22377   22382   22378   22377   22382
   22377   22382   22383   22383   22382   22384   22377   22382   22384
   22377   22382   22385   22384   22382   22385   22383   22382   22385
   22343   22339   22385   22382   22385   22386   22386   22385   22387
   22382   22385   22387   22388   22394   22397   22388   22394   22396
   22388   22394   22395   22388   22390   22393   22388   22390   22392
   22388   22390   22391   22389   22388   22394   22389   22388   22390
   22390   22388   22394   22391   22390   22393   22391   22390   22392
   22392   22390   22393   22394   22397   22400   22394   22397   22399
   22394   22397   22398   22395   22394   22397   22395   22394   22396
   22396   22394   22397   22397   22400   22403   22397   22400   22402
   22397   22400   22401   22398   22397   22400   22398   22397   22399
   22399   22397   22400   22400   22403   22409   22400   22403   22405
   22400   22403   22404   22401   22400   22403   22401   22400   22402
   22402   22400   22403   22403   22409   22412   22403   22409   22411
   22403   22409   22410   22403   22405   22408   22403   22405   22407
   22403   22405   22406   22404   22403   22409   22404   22403   22405
   22405   22403   22409   22406   22405   22408   22406   22405   22407
   22407   22405   22408   22410   22409   22412   22410   22409   22411
   22411   22409   22412   22413   22459   22456   22413   22459   22461
   22413   22459   22460   22413   22417   22420   22413   22417   22419
   22413   22417   22418   22413   22415   22416   22414   22413   22417
   22414   22413   22459   22415   22413   22417   22415   22413   22459
   22414   22413   22415   22417   22420   22421   22417   22420   22451
   22418   22417   22420   22418   22417   22419   22419   22417   22420
   22420   22451   22449   22420   22451   22452   22420   22451   22456
   22420   22421   22423   22420   22421   22422   22421   22423   22426
   22421   22423   22425   22421   22423   22424   22422   22421   22423
   22423   22426   22428   22423   22426   22449   22423   22426   22427
   22424   22423   22426   22424   22423   22425   22425   22423   22426
   22426   22449   22446   22426   22449   22451   22426   22449   22450
   22426   22428   22430   22426   22428   22438   22426   22428   22429
   22427   22426   22428   22427   22426   22449   22428   22438   22436
   22428   22438   22439   22428   22438   22443   22428   22430   22433
   22428   22430   22432   22428   22430   22431   22429   22428   22430
   22429   22428   22438   22430   22433   22436   22430   22433   22435
   22430   22433   22434   22431   22430   22433   22431   22430   22432
   22432   22430   22433   22433   22436   22462   22433   22436   22438
   22433   22436   22437   22434   22433   22436   22434   22433   22435
   22435   22433   22436   22436   22462   22468   22436   22462   22464
   22436   22462   22463   22437   22436   22462   22437   22436   22438
   22438   22443   22446   22438   22443   22445   22438   22443   22444
   22438   22439   22442   22438   22439   22441   22438   22439   22440
   22438   22436   22462   22430   22428   22438   22436   22438   22439
   22440   22439   22442   22440   22439   22441   22441   22439   22442
   22443   22446   22449   22443   22446   22448   22443   22446   22447
   22436   22438   22443   22439   22438   22443   22444   22443   22446
   22444   22443   22445   22445   22443   22446   22447   22446   22449
   22447   22446   22448   22448   22446   22449   22428   22426   22449
   22446   22449   22450   22450   22449   22451   22451   22452   22455
   22451   22452   22454   22451   22452   22453   22446   22449   22451
   22421   22420   22451   22449   22451   22452   22453   22452   22455
   22453   22452   22454   22454   22452   22455   22449   22451   22456
   22452   22451   22456   22451   22456   22457   22457   22456   22458
   22451   22456   22458   22451   22456   22459   22458   22456   22459
   22457   22456   22459   22417   22413   22459   22456   22459   22460
   22460   22459   22461   22456   22459   22461   22462   22468   22471
   22462   22468   22470   22462   22468   22469   22462   22464   22467
   22462   22464   22466   22462   22464   22465   22463   22462   22468
   22463   22462   22464   22464   22462   22468   22465   22464   22467
   22465   22464   22466   22466   22464   22467   22468   22471   22474
   22468   22471   22473   22468   22471   22472   22469   22468   22471
   22469   22468   22470   22470   22468   22471   22471   22474   22477
   22471   22474   22476   22471   22474   22475   22472   22471   22474
   22472   22471   22473   22473   22471   22474   22474   22477   22483
   22474   22477   22479   22474   22477   22478   22475   22474   22477
   22475   22474   22476   22476   22474   22477   22477   22483   22486
   22477   22483   22485   22477   22483   22484   22477   22479   22482
   22477   22479   22481   22477   22479   22480   22478   22477   22483
   22478   22477   22479   22479   22477   22483   22480   22479   22482
   22480   22479   22481   22481   22479   22482   22484   22483   22486
   22484   22483   22485   22485   22483   22486   22487   22533   22530
   22487   22533   22535   22487   22533   22534   22487   22491   22494
   22487   22491   22493   22487   22491   22492   22487   22489   22490
   22488   22487   22491   22488   22487   22533   22489   22487   22491
   22489   22487   22533   22488   22487   22489   22491   22494   22495
   22491   22494   22525   22492   22491   22494   22492   22491   22493
   22493   22491   22494   22494   22525   22523   22494   22525   22526
   22494   22525   22530   22494   22495   22497   22494   22495   22496
   22495   22497   22500   22495   22497   22499   22495   22497   22498
   22496   22495   22497   22497   22500   22502   22497   22500   22523
   22497   22500   22501   22498   22497   22500   22498   22497   22499
   22499   22497   22500   22500   22523   22520   22500   22523   22525
   22500   22523   22524   22500   22502   22504   22500   22502   22512
   22500   22502   22503   22501   22500   22502   22501   22500   22523
   22502   22512   22510   22502   22512   22513   22502   22512   22517
   22502   22504   22507   22502   22504   22506   22502   22504   22505
   22503   22502   22504   22503   22502   22512   22504   22507   22510
   22504   22507   22509   22504   22507   22508   22505   22504   22507
   22505   22504   22506   22506   22504   22507   22507   22510   22536
   22507   22510   22512   22507   22510   22511   22508   22507   22510
   22508   22507   22509   22509   22507   22510   22510   22536   22542
   22510   22536   22538   22510   22536   22537   22511   22510   22536
   22511   22510   22512   22512   22517   22520   22512   22517   22519
   22512   22517   22518   22512   22513   22516   22512   22513   22515
   22512   22513   22514   22512   22510   22536   22504   22502   22512
   22510   22512   22513   22514   22513   22516   22514   22513   22515
   22515   22513   22516   22517   22520   22523   22517   22520   22522
   22517   22520   22521   22510   22512   22517   22513   22512   22517
   22518   22517   22520   22518   22517   22519   22519   22517   22520
   22521   22520   22523   22521   22520   22522   22522   22520   22523
   22502   22500   22523   22520   22523   22524   22524   22523   22525
   22525   22526   22529   22525   22526   22528   22525   22526   22527
   22520   22523   22525   22495   22494   22525   22523   22525   22526
   22527   22526   22529   22527   22526   22528   22528   22526   22529
   22523   22525   22530   22526   22525   22530   22525   22530   22531
   22531   22530   22532   22525   22530   22532   22525   22530   22533
   22532   22530   22533   22531   22530   22533   22491   22487   22533
   22530   22533   22534   22534   22533   22535   22530   22533   22535
   22536   22542   22545   22536   22542   22544   22536   22542   22543
   22536   22538   22541   22536   22538   22540   22536   22538   22539
   22537   22536   22542   22537   22536   22538   22538   22536   22542
   22539   22538   22541   22539   22538   22540   22540   22538   22541
   22542   22545   22548   22542   22545   22547   22542   22545   22546
   22543   22542   22545   22543   22542   22544   22544   22542   22545
   22545   22548   22551   22545   22548   22550   22545   22548   22549
   22546   22545   22548   22546   22545   22547   22547   22545   22548
   22548   22551   22557   22548   22551   22553   22548   22551   22552
   22549   22548   22551   22549   22548   22550   22550   22548   22551
   22551   22557   22560   22551   22557   22559   22551   22557   22558
   22551   22553   22556   22551   22553   22555   22551   22553   22554
   22552   22551   22557   22552   22551   22553   22553   22551   22557
   22554   22553   22556   22554   22553   22555   22555   22553   22556
   22558   22557   22560   22558   22557   22559   22559   22557   22560
   22561   22607   22604   22561   22607   22609   22561   22607   22608
   22561   22565   22568   22561   22565   22567   22561   22565   22566
   22561   22563   22564   22562   22561   22565   22562   22561   22607
   22563   22561   22565   22563   22561   22607   22562   22561   22563
   22565   22568   22569   22565   22568   22599   22566   22565   22568
   22566   22565   22567   22567   22565   22568   22568   22599   22597
   22568   22599   22600   22568   22599   22604   22568   22569   22571
   22568   22569   22570   22569   22571   22574   22569   22571   22573
   22569   22571   22572   22570   22569   22571   22571   22574   22576
   22571   22574   22597   22571   22574   22575   22572   22571   22574
   22572   22571   22573   22573   22571   22574   22574   22597   22594
   22574   22597   22599   22574   22597   22598   22574   22576   22578
   22574   22576   22586   22574   22576   22577   22575   22574   22576
   22575   22574   22597   22576   22586   22584   22576   22586   22587
   22576   22586   22591   22576   22578   22581   22576   22578   22580
   22576   22578   22579   22577   22576   22578   22577   22576   22586
   22578   22581   22584   22578   22581   22583   22578   22581   22582
   22579   22578   22581   22579   22578   22580   22580   22578   22581
   22581   22584   22610   22581   22584   22586   22581   22584   22585
   22582   22581   22584   22582   22581   22583   22583   22581   22584
   22584   22610   22616   22584   22610   22612   22584   22610   22611
   22585   22584   22610   22585   22584   22586   22586   22591   22594
   22586   22591   22593   22586   22591   22592   22586   22587   22590
   22586   22587   22589   22586   22587   22588   22586   22584   22610
   22578   22576   22586   22584   22586   22587   22588   22587   22590
   22588   22587   22589   22589   22587   22590   22591   22594   22597
   22591   22594   22596   22591   22594   22595   22584   22586   22591
   22587   22586   22591   22592   22591   22594   22592   22591   22593
   22593   22591   22594   22595   22594   22597   22595   22594   22596
   22596   22594   22597   22576   22574   22597   22594   22597   22598
   22598   22597   22599   22599   22600   22603   22599   22600   22602
   22599   22600   22601   22594   22597   22599   22569   22568   22599
   22597   22599   22600   22601   22600   22603   22601   22600   22602
   22602   22600   22603   22597   22599   22604   22600   22599   22604
   22599   22604   22605   22605   22604   22606   22599   22604   22606
   22599   22604   22607   22606   22604   22607   22605   22604   22607
   22565   22561   22607   22604   22607   22608   22608   22607   22609
   22604   22607   22609   22610   22616   22619   22610   22616   22618
   22610   22616   22617   22610   22612   22615   22610   22612   22614
   22610   22612   22613   22611   22610   22616   22611   22610   22612
   22612   22610   22616   22613   22612   22615   22613   22612   22614
   22614   22612   22615   22616   22619   22622   22616   22619   22621
   22616   22619   22620   22617   22616   22619   22617   22616   22618
   22618   22616   22619   22619   22622   22625   22619   22622   22624
   22619   22622   22623   22620   22619   22622   22620   22619   22621
   22621   22619   22622   22622   22625   22631   22622   22625   22627
   22622   22625   22626   22623   22622   22625   22623   22622   22624
   22624   22622   22625   22625   22631   22634   22625   22631   22633
   22625   22631   22632   22625   22627   22630   22625   22627   22629
   22625   22627   22628   22626   22625   22631   22626   22625   22627
   22627   22625   22631   22628   22627   22630   22628   22627   22629
   22629   22627   22630   22632   22631   22634   22632   22631   22633
   22633   22631   22634   22635   22681   22678   22635   22681   22683
   22635   22681   22682   22635   22639   22642   22635   22639   22641
   22635   22639   22640   22635   22637   22638   22636   22635   22639
   22636   22635   22681   22637   22635   22639   22637   22635   22681
   22636   22635   22637   22639   22642   22643   22639   22642   22673
   22640   22639   22642   22640   22639   22641   22641   22639   22642
   22642   22673   22671   22642   22673   22674   22642   22673   22678
   22642   22643   22645   22642   22643   22644   22643   22645   22648
   22643   22645   22647   22643   22645   22646   22644   22643   22645
   22645   22648   22650   22645   22648   22671   22645   22648   22649
   22646   22645   22648   22646   22645   22647   22647   22645   22648
   22648   22671   22668   22648   22671   22673   22648   22671   22672
   22648   22650   22652   22648   22650   22660   22648   22650   22651
   22649   22648   22650   22649   22648   22671   22650   22660   22658
   22650   22660   22661   22650   22660   22665   22650   22652   22655
   22650   22652   22654   22650   22652   22653   22651   22650   22652
   22651   22650   22660   22652   22655   22658   22652   22655   22657
   22652   22655   22656   22653   22652   22655   22653   22652   22654
   22654   22652   22655   22655   22658   22684   22655   22658   22660
   22655   22658   22659   22656   22655   22658   22656   22655   22657
   22657   22655   22658   22658   22684   22690   22658   22684   22686
   22658   22684   22685   22659   22658   22684   22659   22658   22660
   22660   22665   22668   22660   22665   22667   22660   22665   22666
   22660   22661   22664   22660   22661   22663   22660   22661   22662
   22660   22658   22684   22652   22650   22660   22658   22660   22661
   22662   22661   22664   22662   22661   22663   22663   22661   22664
   22665   22668   22671   22665   22668   22670   22665   22668   22669
   22658   22660   22665   22661   22660   22665   22666   22665   22668
   22666   22665   22667   22667   22665   22668   22669   22668   22671
   22669   22668   22670   22670   22668   22671   22650   22648   22671
   22668   22671   22672   22672   22671   22673   22673   22674   22677
   22673   22674   22676   22673   22674   22675   22668   22671   22673
   22643   22642   22673   22671   22673   22674   22675   22674   22677
   22675   22674   22676   22676   22674   22677   22671   22673   22678
   22674   22673   22678   22673   22678   22679   22679   22678   22680
   22673   22678   22680   22673   22678   22681   22680   22678   22681
   22679   22678   22681   22639   22635   22681   22678   22681   22682
   22682   22681   22683   22678   22681   22683   22684   22690   22693
   22684   22690   22692   22684   22690   22691   22684   22686   22689
   22684   22686   22688   22684   22686   22687   22685   22684   22690
   22685   22684   22686   22686   22684   22690   22687   22686   22689
   22687   22686   22688   22688   22686   22689   22690   22693   22696
   22690   22693   22695   22690   22693   22694   22691   22690   22693
   22691   22690   22692   22692   22690   22693   22693   22696   22699
   22693   22696   22698   22693   22696   22697   22694   22693   22696
   22694   22693   22695   22695   22693   22696   22696   22699   22705
   22696   22699   22701   22696   22699   22700   22697   22696   22699
   22697   22696   22698   22698   22696   22699   22699   22705   22708
   22699   22705   22707   22699   22705   22706   22699   22701   22704
   22699   22701   22703   22699   22701   22702   22700   22699   22705
   22700   22699   22701   22701   22699   22705   22702   22701   22704
   22702   22701   22703   22703   22701   22704   22706   22705   22708
   22706   22705   22707   22707   22705   22708   22709   22755   22752
   22709   22755   22757   22709   22755   22756   22709   22713   22716
   22709   22713   22715   22709   22713   22714   22709   22711   22712
   22710   22709   22713   22710   22709   22755   22711   22709   22713
   22711   22709   22755   22710   22709   22711   22713   22716   22717
   22713   22716   22747   22714   22713   22716   22714   22713   22715
   22715   22713   22716   22716   22747   22745   22716   22747   22748
   22716   22747   22752   22716   22717   22719   22716   22717   22718
   22717   22719   22722   22717   22719   22721   22717   22719   22720
   22718   22717   22719   22719   22722   22724   22719   22722   22745
   22719   22722   22723   22720   22719   22722   22720   22719   22721
   22721   22719   22722   22722   22745   22742   22722   22745   22747
   22722   22745   22746   22722   22724   22726   22722   22724   22734
   22722   22724   22725   22723   22722   22724   22723   22722   22745
   22724   22734   22732   22724   22734   22735   22724   22734   22739
   22724   22726   22729   22724   22726   22728   22724   22726   22727
   22725   22724   22726   22725   22724   22734   22726   22729   22732
   22726   22729   22731   22726   22729   22730   22727   22726   22729
   22727   22726   22728   22728   22726   22729   22729   22732   22758
   22729   22732   22734   22729   22732   22733   22730   22729   22732
   22730   22729   22731   22731   22729   22732   22732   22758   22764
   22732   22758   22760   22732   22758   22759   22733   22732   22758
   22733   22732   22734   22734   22739   22742   22734   22739   22741
   22734   22739   22740   22734   22735   22738   22734   22735   22737
   22734   22735   22736   22734   22732   22758   22726   22724   22734
   22732   22734   22735   22736   22735   22738   22736   22735   22737
   22737   22735   22738   22739   22742   22745   22739   22742   22744
   22739   22742   22743   22732   22734   22739   22735   22734   22739
   22740   22739   22742   22740   22739   22741   22741   22739   22742
   22743   22742   22745   22743   22742   22744   22744   22742   22745
   22724   22722   22745   22742   22745   22746   22746   22745   22747
   22747   22748   22751   22747   22748   22750   22747   22748   22749
   22742   22745   22747   22717   22716   22747   22745   22747   22748
   22749   22748   22751   22749   22748   22750   22750   22748   22751
   22745   22747   22752   22748   22747   22752   22747   22752   22753
   22753   22752   22754   22747   22752   22754   22747   22752   22755
   22754   22752   22755   22753   22752   22755   22713   22709   22755
   22752   22755   22756   22756   22755   22757   22752   22755   22757
   22758   22764   22767   22758   22764   22766   22758   22764   22765
   22758   22760   22763   22758   22760   22762   22758   22760   22761
   22759   22758   22764   22759   22758   22760   22760   22758   22764
   22761   22760   22763   22761   22760   22762   22762   22760   22763
   22764   22767   22770   22764   22767   22769   22764   22767   22768
   22765   22764   22767   22765   22764   22766   22766   22764   22767
   22767   22770   22773   22767   22770   22772   22767   22770   22771
   22768   22767   22770   22768   22767   22769   22769   22767   22770
   22770   22773   22779   22770   22773   22775   22770   22773   22774
   22771   22770   22773   22771   22770   22772   22772   22770   22773
   22773   22779   22782   22773   22779   22781   22773   22779   22780
   22773   22775   22778   22773   22775   22777   22773   22775   22776
   22774   22773   22779   22774   22773   22775   22775   22773   22779
   22776   22775   22778   22776   22775   22777   22777   22775   22778
   22780   22779   22782   22780   22779   22781   22781   22779   22782
   22783   22829   22826   22783   22829   22831   22783   22829   22830
   22783   22787   22790   22783   22787   22789   22783   22787   22788
   22783   22785   22786   22784   22783   22787   22784   22783   22829
   22785   22783   22787   22785   22783   22829   22784   22783   22785
   22787   22790   22791   22787   22790   22821   22788   22787   22790
   22788   22787   22789   22789   22787   22790   22790   22821   22819
   22790   22821   22822   22790   22821   22826   22790   22791   22793
   22790   22791   22792   22791   22793   22796   22791   22793   22795
   22791   22793   22794   22792   22791   22793   22793   22796   22798
   22793   22796   22819   22793   22796   22797   22794   22793   22796
   22794   22793   22795   22795   22793   22796   22796   22819   22816
   22796   22819   22821   22796   22819   22820   22796   22798   22800
   22796   22798   22808   22796   22798   22799   22797   22796   22798
   22797   22796   22819   22798   22808   22806   22798   22808   22809
   22798   22808   22813   22798   22800   22803   22798   22800   22802
   22798   22800   22801   22799   22798   22800   22799   22798   22808
   22800   22803   22806   22800   22803   22805   22800   22803   22804
   22801   22800   22803   22801   22800   22802   22802   22800   22803
   22803   22806   22832   22803   22806   22808   22803   22806   22807
   22804   22803   22806   22804   22803   22805   22805   22803   22806
   22806   22832   22838   22806   22832   22834   22806   22832   22833
   22807   22806   22832   22807   22806   22808   22808   22813   22816
   22808   22813   22815   22808   22813   22814   22808   22809   22812
   22808   22809   22811   22808   22809   22810   22808   22806   22832
   22800   22798   22808   22806   22808   22809   22810   22809   22812
   22810   22809   22811   22811   22809   22812   22813   22816   22819
   22813   22816   22818   22813   22816   22817   22806   22808   22813
   22809   22808   22813   22814   22813   22816   22814   22813   22815
   22815   22813   22816   22817   22816   22819   22817   22816   22818
   22818   22816   22819   22798   22796   22819   22816   22819   22820
   22820   22819   22821   22821   22822   22825   22821   22822   22824
   22821   22822   22823   22816   22819   22821   22791   22790   22821
   22819   22821   22822   22823   22822   22825   22823   22822   22824
   22824   22822   22825   22819   22821   22826   22822   22821   22826
   22821   22826   22827   22827   22826   22828   22821   22826   22828
   22821   22826   22829   22828   22826   22829   22827   22826   22829
   22787   22783   22829   22826   22829   22830   22830   22829   22831
   22826   22829   22831   22832   22838   22841   22832   22838   22840
   22832   22838   22839   22832   22834   22837   22832   22834   22836
   22832   22834   22835   22833   22832   22838   22833   22832   22834
   22834   22832   22838   22835   22834   22837   22835   22834   22836
   22836   22834   22837   22838   22841   22844   22838   22841   22843
   22838   22841   22842   22839   22838   22841   22839   22838   22840
   22840   22838   22841   22841   22844   22847   22841   22844   22846
   22841   22844   22845   22842   22841   22844   22842   22841   22843
   22843   22841   22844   22844   22847   22853   22844   22847   22849
   22844   22847   22848   22845   22844   22847   22845   22844   22846
   22846   22844   22847   22847   22853   22856   22847   22853   22855
   22847   22853   22854   22847   22849   22852   22847   22849   22851
   22847   22849   22850   22848   22847   22853   22848   22847   22849
   22849   22847   22853   22850   22849   22852   22850   22849   22851
   22851   22849   22852   22854   22853   22856   22854   22853   22855
   22855   22853   22856   22857   22903   22900   22857   22903   22905
   22857   22903   22904   22857   22861   22864   22857   22861   22863
   22857   22861   22862   22857   22859   22860   22858   22857   22861
   22858   22857   22903   22859   22857   22861   22859   22857   22903
   22858   22857   22859   22861   22864   22865   22861   22864   22895
   22862   22861   22864   22862   22861   22863   22863   22861   22864
   22864   22895   22893   22864   22895   22896   22864   22895   22900
   22864   22865   22867   22864   22865   22866   22865   22867   22870
   22865   22867   22869   22865   22867   22868   22866   22865   22867
   22867   22870   22872   22867   22870   22893   22867   22870   22871
   22868   22867   22870   22868   22867   22869   22869   22867   22870
   22870   22893   22890   22870   22893   22895   22870   22893   22894
   22870   22872   22874   22870   22872   22882   22870   22872   22873
   22871   22870   22872   22871   22870   22893   22872   22882   22880
   22872   22882   22883   22872   22882   22887   22872   22874   22877
   22872   22874   22876   22872   22874   22875   22873   22872   22874
   22873   22872   22882   22874   22877   22880   22874   22877   22879
   22874   22877   22878   22875   22874   22877   22875   22874   22876
   22876   22874   22877   22877   22880   22906   22877   22880   22882
   22877   22880   22881   22878   22877   22880   22878   22877   22879
   22879   22877   22880   22880   22906   22912   22880   22906   22908
   22880   22906   22907   22881   22880   22906   22881   22880   22882
   22882   22887   22890   22882   22887   22889   22882   22887   22888
   22882   22883   22886   22882   22883   22885   22882   22883   22884
   22882   22880   22906   22874   22872   22882   22880   22882   22883
   22884   22883   22886   22884   22883   22885   22885   22883   22886
   22887   22890   22893   22887   22890   22892   22887   22890   22891
   22880   22882   22887   22883   22882   22887   22888   22887   22890
   22888   22887   22889   22889   22887   22890   22891   22890   22893
   22891   22890   22892   22892   22890   22893   22872   22870   22893
   22890   22893   22894   22894   22893   22895   22895   22896   22899
   22895   22896   22898   22895   22896   22897   22890   22893   22895
   22865   22864   22895   22893   22895   22896   22897   22896   22899
   22897   22896   22898   22898   22896   22899   22893   22895   22900
   22896   22895   22900   22895   22900   22901   22901   22900   22902
   22895   22900   22902   22895   22900   22903   22902   22900   22903
   22901   22900   22903   22861   22857   22903   22900   22903   22904
   22904   22903   22905   22900   22903   22905   22906   22912   22915
   22906   22912   22914   22906   22912   22913   22906   22908   22911
   22906   22908   22910   22906   22908   22909   22907   22906   22912
   22907   22906   22908   22908   22906   22912   22909   22908   22911
   22909   22908   22910   22910   22908   22911   22912   22915   22918
   22912   22915   22917   22912   22915   22916   22913   22912   22915
   22913   22912   22914   22914   22912   22915   22915   22918   22921
   22915   22918   22920   22915   22918   22919   22916   22915   22918
   22916   22915   22917   22917   22915   22918   22918   22921   22927
   22918   22921   22923   22918   22921   22922   22919   22918   22921
   22919   22918   22920   22920   22918   22921   22921   22927   22930
   22921   22927   22929   22921   22927   22928   22921   22923   22926
   22921   22923   22925   22921   22923   22924   22922   22921   22927
   22922   22921   22923   22923   22921   22927   22924   22923   22926
   22924   22923   22925   22925   22923   22926   22928   22927   22930
   22928   22927   22929   22929   22927   22930   22931   22935   22940
   22931   22935   22936   22931   22935   22937   22932   22931   22935
   22932   22931   22934   22932   22931   22933   22933   22931   22935
   22933   22931   22934   22934   22931   22935   22935   22940   22946
   22935   22940   22942   22935   22940   22941   22935   22937   22938
   22936   22935   22940   22937   22935   22940   22936   22935   22937
   22938   22937   22939   22935   22937   22939   22940   22946   22943
   22941   22940   22946   22941   22940   22942   22942   22940   22946
   22944   22943   22945   22945   22943   22946   22944   22943   22946
   22946   22943   22947   22947   22948   22951   22947   22948   22950
   22947   22948   22949   22945   22943   22947   22944   22943   22947
   22948   22951   22953   22948   22951   22959   22948   22951   22952
   22943   22947   22948   22949   22948   22951   22949   22948   22950
   22950   22948   22951   22951   22959   22962   22951   22959   22961
   22951   22959   22960   22951   22953   22954   22952   22951   22953
   22952   22951   22959   22953   22954   22955   22953   22954   22956
   22954   22956   22968   22954   22956   22958   22954   22956   22957
   22956   22968   22971   22956   22968   22970   22956   22968   22969
   22955   22954   22956   22957   22956   22968   22957   22956   22958
   22958   22956   22968   22959   22962   22963   22953   22951   22959
   22960   22959   22962   22960   22959   22961   22961   22959   22962
   22962   22963   22964   22962   22963   22965   22963   22965   23015
   22963   22965   22967   22963   22965   22966   22965   23015   23018
   22965   23015   23017   22965   23015   23016   22964   22963   22965
   22966   22965   23015   22966   22965   22967   22967   22965   23015
   22968   22971   22974   22968   22971   22973   22968   22971   22972
   22969   22968   22971   22969   22968   22970   22970   22968   22971
   22971   22974   22977   22971   22974   22976   22971   22974   22975
   22972   22971   22974   22972   22971   22973   22973   22971   22974
   22974   22977   22980   22974   22977   22979   22974   22977   22978
   22975   22974   22977   22975   22974   22976   22976   22974   22977
   22977   22980   22983   22977   22980   22982   22977   22980   22981
   22978   22977   22980   22978   22977   22979   22979   22977   22980
   22980   22983   22986   22980   22983   22985   22980   22983   22984
   22981   22980   22983   22981   22980   22982   22982   22980   22983
   22983   22986   22988   22983   22986   22987   22984   22983   22986
   22984   22983   22985   22985   22983   22986   22986   22988   22990
   22986   22988   22989   22987   22986   22988   22988   22990   22993
   22988   22990   22992   22988   22990   22991   22989   22988   22990
   22990   22993   22996   22990   22993   22995   22990   22993   22994
   22991   22990   22993   22991   22990   22992   22992   22990   22993
   22993   22996   22999   22993   22996   22998   22993   22996   22997
   22994   22993   22996   22994   22993   22995   22995   22993   22996
   22996   22999   23002   22996   22999   23001   22996   22999   23000
   22997   22996   22999   22997   22996   22998   22998   22996   22999
   22999   23002   23005   22999   23002   23004   22999   23002   23003
   23000   22999   23002   23000   22999   23001   23001   22999   23002
   23002   23005   23008   23002   23005   23007   23002   23005   23006
   23003   23002   23005   23003   23002   23004   23004   23002   23005
   23005   23008   23011   23005   23008   23010   23005   23008   23009
   23006   23005   23008   23006   23005   23007   23007   23005   23008
   23008   23011   23014   23008   23011   23013   23008   23011   23012
   23009   23008   23011   23009   23008   23010   23010   23008   23011
   23012   23011   23014   23012   23011   23013   23013   23011   23014
   23015   23018   23021   23015   23018   23020   23015   23018   23019
   23016   23015   23018   23016   23015   23017   23017   23015   23018
   23018   23021   23024   23018   23021   23023   23018   23021   23022
   23019   23018   23021   23019   23018   23020   23020   23018   23021
   23021   23024   23027   23021   23024   23026   23021   23024   23025
   23022   23021   23024   23022   23021   23023   23023   23021   23024
   23024   23027   23030   23024   23027   23029   23024   23027   23028
   23025   23024   23027   23025   23024   23026   23026   23024   23027
   23027   23030   23033   23027   23030   23032   23027   23030   23031
   23028   23027   23030   23028   23027   23029   23029   23027   23030
   23030   23033   23036   23030   23033   23035   23030   23033   23034
   23031   23030   23033   23031   23030   23032   23032   23030   23033
   23033   23036   23039   23033   23036   23038   23033   23036   23037
   23034   23033   23036   23034   23033   23035   23035   23033   23036
   23036   23039   23042   23036   23039   23041   23036   23039   23040
   23037   23036   23039   23037   23036   23038   23038   23036   23039
   23039   23042   23045   23039   23042   23044   23039   23042   23043
   23040   23039   23042   23040   23039   23041   23041   23039   23042
   23042   23045   23048   23042   23045   23047   23042   23045   23046
   23043   23042   23045   23043   23042   23044   23044   23042   23045
   23045   23048   23051   23045   23048   23050   23045   23048   23049
   23046   23045   23048   23046   23045   23047   23047   23045   23048
   23048   23051   23054   23048   23051   23053   23048   23051   23052
   23049   23048   23051   23049   23048   23050   23050   23048   23051
   23051   23054   23057   23051   23054   23056   23051   23054   23055
   23052   23051   23054   23052   23051   23053   23053   23051   23054
   23055   23054   23057   23055   23054   23056   23056   23054   23057
   23058   23067   23070   23058   23067   23069   23058   23067   23068
   23058   23063   23066   23058   23063   23065   23058   23063   23064
   23058   23059   23062   23058   23059   23061   23058   23059   23060
   23060   23059   23062   23060   23059   23061   23061   23059   23062
   23059   23058   23063   23064   23063   23066   23064   23063   23065
   23065   23063   23066   23059   23058   23067   23063   23058   23067
   23068   23067   23070   23068   23067   23069   23069   23067   23070
   23059   23058   23071   23063   23058   23071   23067   23058   23071
   23058   23071   23072   23072   23071   23073   23058   23071   23073
   23058   23071   23074   23073   23071   23074   23072   23071   23074
   23071   23074   23075   23075   23074   23076   23071   23074   23076
   23074   23081   23077   23078   23077   23079   23079   23077   23080
   23078   23077   23080   23080   23077   23081   23079   23077   23081
   23078   23077   23081   23071   23074   23081   23076   23074   23081
   23075   23074   23081   23082   23087   23085   23077   23080   23082
   23080   23082   23083   23083   23082   23084   23080   23082   23084
   23085   23137   23138   23085   23137   23139   23086   23085   23137
   23087   23085   23137   23086   23085   23087   23080   23082   23087
   23084   23082   23087   23083   23082   23087   23085   23087   23088
   23082   23087   23088   23089   23093   23095   23089   23091   23092
   23085   23087   23089   23082   23087   23089   23088   23087   23089
   23087   23089   23090   23090   23089   23091   23087   23089   23091
   23087   23089   23093   23091   23089   23093   23090   23089   23093
   23094   23093   23095   23089   23093   23094   23093   23095   23096
   23093   23095   23097   23096   23095   23097   23095   23097   23098
   23098   23097   23099   23095   23097   23099   23095   23097   23100
   23099   23097   23100   23098   23097   23100   23097   23100   23101
   23101   23100   23102   23097   23100   23102   23097   23100   23103
   23102   23100   23103   23101   23100   23103   23100   23103   23104
   23104   23103   23105   23100   23103   23105   23100   23103   23106
   23105   23103   23106   23104   23103   23106   23103   23106   23107
   23107   23106   23108   23103   23106   23108   23103   23106   23109
   23108   23106   23109   23107   23106   23109   23106   23109   23110
   23110   23109   23111   23106   23109   23111   23106   23109   23112
   23111   23109   23112   23110   23109   23112   23109   23112   23113
   23113   23112   23114   23109   23112   23114   23109   23112   23115
   23114   23112   23115   23113   23112   23115   23112   23115   23116
   23116   23115   23117   23112   23115   23117   23112   23115   23118
   23117   23115   23118   23116   23115   23118   23115   23118   23119
   23119   23118   23120   23115   23118   23120   23115   23118   23121
   23120   23118   23121   23119   23118   23121   23118   23121   23122
   23122   23121   23123   23118   23121   23123   23118   23121   23124
   23123   23121   23124   23122   23121   23124   23121   23124   23125
   23125   23124   23126   23121   23124   23126   23121   23124   23127
   23126   23124   23127   23125   23124   23127   23124   23127   23128
   23128   23127   23129   23124   23127   23129   23124   23127   23130
   23129   23127   23130   23128   23127   23130   23127   23130   23131
   23131   23130   23132   23127   23130   23132   23127   23130   23133
   23132   23130   23133   23131   23130   23133   23130   23133   23134
   23134   23133   23136   23134   23133   23135   23130   23133   23135
   23135   23133   23136   23130   23133   23136   23137   23139   23142
   23137   23139   23141   23137   23139   23140   23139   23142   23145
   23139   23142   23144   23139   23142   23143   23138   23137   23139
   23140   23139   23142   23140   23139   23141   23141   23139   23142
   23142   23145   23148   23142   23145   23147   23142   23145   23146
   23143   23142   23145   23143   23142   23144   23144   23142   23145
   23145   23148   23151   23145   23148   23150   23145   23148   23149
   23146   23145   23148   23146   23145   23147   23147   23145   23148
   23148   23151   23154   23148   23151   23153   23148   23151   23152
   23149   23148   23151   23149   23148   23150   23150   23148   23151
   23151   23154   23157   23151   23154   23156   23151   23154   23155
   23152   23151   23154   23152   23151   23153   23153   23151   23154
   23154   23157   23160   23154   23157   23159   23154   23157   23158
   23155   23154   23157   23155   23154   23156   23156   23154   23157
   23157   23160   23163   23157   23160   23162   23157   23160   23161
   23158   23157   23160   23158   23157   23159   23159   23157   23160
   23160   23163   23166   23160   23163   23165   23160   23163   23164
   23161   23160   23163   23161   23160   23162   23162   23160   23163
   23163   23166   23169   23163   23166   23168   23163   23166   23167
   23164   23163   23166   23164   23163   23165   23165   23163   23166
   23166   23169   23172   23166   23169   23171   23166   23169   23170
   23167   23166   23169   23167   23166   23168   23168   23166   23169
   23169   23172   23175   23169   23172   23174   23169   23172   23173
   23170   23169   23172   23170   23169   23171   23171   23169   23172
   23172   23175   23178   23172   23175   23177   23172   23175   23176
   23173   23172   23175   23173   23172   23174   23174   23172   23175
   23175   23178   23181   23175   23178   23180   23175   23178   23179
   23176   23175   23178   23176   23175   23177   23177   23175   23178
   23178   23181   23184   23178   23181   23183   23178   23181   23182
   23179   23178   23181   23179   23178   23180   23180   23178   23181
   23182   23181   23184   23182   23181   23183   23183   23181   23184
   23185   23189   23194   23185   23189   23190   23185   23189   23191
   23186   23185   23189   23186   23185   23188   23186   23185   23187
   23187   23185   23189   23187   23185   23188   23188   23185   23189
   23189   23194   23200   23189   23194   23196   23189   23194   23195
   23189   23191   23192   23190   23189   23194   23191   23189   23194
   23190   23189   23191   23192   23191   23193   23189   23191   23193
   23194   23200   23197   23195   23194   23200   23195   23194   23196
   23196   23194   23200   23198   23197   23199   23199   23197   23200
   23198   23197   23200   23200   23197   23201   23201   23202   23205
   23201   23202   23204   23201   23202   23203   23199   23197   23201
   23198   23197   23201   23202   23205   23207   23202   23205   23213
   23202   23205   23206   23197   23201   23202   23203   23202   23205
   23203   23202   23204   23204   23202   23205   23205   23213   23216
   23205   23213   23215   23205   23213   23214   23205   23207   23208
   23206   23205   23207   23206   23205   23213   23207   23208   23209
   23207   23208   23210   23208   23210   23222   23208   23210   23212
   23208   23210   23211   23210   23222   23225   23210   23222   23224
   23210   23222   23223   23209   23208   23210   23211   23210   23222
   23211   23210   23212   23212   23210   23222   23213   23216   23217
   23207   23205   23213   23214   23213   23216   23214   23213   23215
   23215   23213   23216   23216   23217   23218   23216   23217   23219
   23217   23219   23269   23217   23219   23221   23217   23219   23220
   23219   23269   23272   23219   23269   23271   23219   23269   23270
   23218   23217   23219   23220   23219   23269   23220   23219   23221
   23221   23219   23269   23222   23225   23228   23222   23225   23227
   23222   23225   23226   23223   23222   23225   23223   23222   23224
   23224   23222   23225   23225   23228   23231   23225   23228   23230
   23225   23228   23229   23226   23225   23228   23226   23225   23227
   23227   23225   23228   23228   23231   23234   23228   23231   23233
   23228   23231   23232   23229   23228   23231   23229   23228   23230
   23230   23228   23231   23231   23234   23237   23231   23234   23236
   23231   23234   23235   23232   23231   23234   23232   23231   23233
   23233   23231   23234   23234   23237   23240   23234   23237   23239
   23234   23237   23238   23235   23234   23237   23235   23234   23236
   23236   23234   23237   23237   23240   23242   23237   23240   23241
   23238   23237   23240   23238   23237   23239   23239   23237   23240
   23240   23242   23244   23240   23242   23243   23241   23240   23242
   23242   23244   23247   23242   23244   23246   23242   23244   23245
   23243   23242   23244   23244   23247   23250   23244   23247   23249
   23244   23247   23248   23245   23244   23247   23245   23244   23246
   23246   23244   23247   23247   23250   23253   23247   23250   23252
   23247   23250   23251   23248   23247   23250   23248   23247   23249
   23249   23247   23250   23250   23253   23256   23250   23253   23255
   23250   23253   23254   23251   23250   23253   23251   23250   23252
   23252   23250   23253   23253   23256   23259   23253   23256   23258
   23253   23256   23257   23254   23253   23256   23254   23253   23255
   23255   23253   23256   23256   23259   23262   23256   23259   23261
   23256   23259   23260   23257   23256   23259   23257   23256   23258
   23258   23256   23259   23259   23262   23265   23259   23262   23264
   23259   23262   23263   23260   23259   23262   23260   23259   23261
   23261   23259   23262   23262   23265   23268   23262   23265   23267
   23262   23265   23266   23263   23262   23265   23263   23262   23264
   23264   23262   23265   23266   23265   23268   23266   23265   23267
   23267   23265   23268   23269   23272   23275   23269   23272   23274
   23269   23272   23273   23270   23269   23272   23270   23269   23271
   23271   23269   23272   23272   23275   23278   23272   23275   23277
   23272   23275   23276   23273   23272   23275   23273   23272   23274
   23274   23272   23275   23275   23278   23281   23275   23278   23280
   23275   23278   23279   23276   23275   23278   23276   23275   23277
   23277   23275   23278   23278   23281   23284   23278   23281   23283
   23278   23281   23282   23279   23278   23281   23279   23278   23280
   23280   23278   23281   23281   23284   23287   23281   23284   23286
   23281   23284   23285   23282   23281   23284   23282   23281   23283
   23283   23281   23284   23284   23287   23290   23284   23287   23289
   23284   23287   23288   23285   23284   23287   23285   23284   23286
   23286   23284   23287   23287   23290   23293   23287   23290   23292
   23287   23290   23291   23288   23287   23290   23288   23287   23289
   23289   23287   23290   23290   23293   23296   23290   23293   23295
   23290   23293   23294   23291   23290   23293   23291   23290   23292
   23292   23290   23293   23293   23296   23299   23293   23296   23298
   23293   23296   23297   23294   23293   23296   23294   23293   23295
   23295   23293   23296   23296   23299   23302   23296   23299   23301
   23296   23299   23300   23297   23296   23299   23297   23296   23298
   23298   23296   23299   23299   23302   23305   23299   23302   23304
   23299   23302   23303   23300   23299   23302   23300   23299   23301
   23301   23299   23302   23302   23305   23308   23302   23305   23307
   23302   23305   23306   23303   23302   23305   23303   23302   23304
   23304   23302   23305   23305   23308   23311   23305   23308   23310
   23305   23308   23309   23306   23305   23308   23306   23305   23307
   23307   23305   23308   23309   23308   23311   23309   23308   23310
   23310   23308   23311   23312   23316   23321   23312   23316   23317
   23312   23316   23318   23313   23312   23316   23313   23312   23315
   23313   23312   23314   23314   23312   23316   23314   23312   23315
   23315   23312   23316   23316   23321   23327   23316   23321   23323
   23316   23321   23322   23316   23318   23319   23317   23316   23321
   23318   23316   23321   23317   23316   23318   23319   23318   23320
   23316   23318   23320   23321   23327   23324   23322   23321   23327
   23322   23321   23323   23323   23321   23327   23325   23324   23326
   23326   23324   23327   23325   23324   23327   23327   23324   23328
   23328   23329   23332   23328   23329   23331   23328   23329   23330
   23326   23324   23328   23325   23324   23328   23329   23332   23334
   23329   23332   23340   23329   23332   23333   23324   23328   23329
   23330   23329   23332   23330   23329   23331   23331   23329   23332
   23332   23340   23343   23332   23340   23342   23332   23340   23341
   23332   23334   23335   23333   23332   23334   23333   23332   23340
   23334   23335   23336   23334   23335   23337   23335   23337   23349
   23335   23337   23339   23335   23337   23338   23337   23349   23352
   23337   23349   23351   23337   23349   23350   23336   23335   23337
   23338   23337   23349   23338   23337   23339   23339   23337   23349
   23340   23343   23344   23334   23332   23340   23341   23340   23343
   23341   23340   23342   23342   23340   23343   23343   23344   23345
   23343   23344   23346   23344   23346   23396   23344   23346   23348
   23344   23346   23347   23346   23396   23399   23346   23396   23398
   23346   23396   23397   23345   23344   23346   23347   23346   23396
   23347   23346   23348   23348   23346   23396   23349   23352   23355
   23349   23352   23354   23349   23352   23353   23350   23349   23352
   23350   23349   23351   23351   23349   23352   23352   23355   23358
   23352   23355   23357   23352   23355   23356   23353   23352   23355
   23353   23352   23354   23354   23352   23355   23355   23358   23361
   23355   23358   23360   23355   23358   23359   23356   23355   23358
   23356   23355   23357   23357   23355   23358   23358   23361   23364
   23358   23361   23363   23358   23361   23362   23359   23358   23361
   23359   23358   23360   23360   23358   23361   23361   23364   23367
   23361   23364   23366   23361   23364   23365   23362   23361   23364
   23362   23361   23363   23363   23361   23364   23364   23367   23369
   23364   23367   23368   23365   23364   23367   23365   23364   23366
   23366   23364   23367   23367   23369   23371   23367   23369   23370
   23368   23367   23369   23369   23371   23374   23369   23371   23373
   23369   23371   23372   23370   23369   23371   23371   23374   23377
   23371   23374   23376   23371   23374   23375   23372   23371   23374
   23372   23371   23373   23373   23371   23374   23374   23377   23380
   23374   23377   23379   23374   23377   23378   23375   23374   23377
   23375   23374   23376   23376   23374   23377   23377   23380   23383
   23377   23380   23382   23377   23380   23381   23378   23377   23380
   23378   23377   23379   23379   23377   23380   23380   23383   23386
   23380   23383   23385   23380   23383   23384   23381   23380   23383
   23381   23380   23382   23382   23380   23383   23383   23386   23389
   23383   23386   23388   23383   23386   23387   23384   23383   23386
   23384   23383   23385   23385   23383   23386   23386   23389   23392
   23386   23389   23391   23386   23389   23390   23387   23386   23389
   23387   23386   23388   23388   23386   23389   23389   23392   23395
   23389   23392   23394   23389   23392   23393   23390   23389   23392
   23390   23389   23391   23391   23389   23392   23393   23392   23395
   23393   23392   23394   23394   23392   23395   23396   23399   23402
   23396   23399   23401   23396   23399   23400   23397   23396   23399
   23397   23396   23398   23398   23396   23399   23399   23402   23405
   23399   23402   23404   23399   23402   23403   23400   23399   23402
   23400   23399   23401   23401   23399   23402   23402   23405   23408
   23402   23405   23407   23402   23405   23406   23403   23402   23405
   23403   23402   23404   23404   23402   23405   23405   23408   23411
   23405   23408   23410   23405   23408   23409   23406   23405   23408
   23406   23405   23407   23407   23405   23408   23408   23411   23414
   23408   23411   23413   23408   23411   23412   23409   23408   23411
   23409   23408   23410   23410   23408   23411   23411   23414   23417
   23411   23414   23416   23411   23414   23415   23412   23411   23414
   23412   23411   23413   23413   23411   23414   23414   23417   23420
   23414   23417   23419   23414   23417   23418   23415   23414   23417
   23415   23414   23416   23416   23414   23417   23417   23420   23423
   23417   23420   23422   23417   23420   23421   23418   23417   23420
   23418   23417   23419   23419   23417   23420   23420   23423   23426
   23420   23423   23425   23420   23423   23424   23421   23420   23423
   23421   23420   23422   23422   23420   23423   23423   23426   23429
   23423   23426   23428   23423   23426   23427   23424   23423   23426
   23424   23423   23425   23425   23423   23426   23426   23429   23432
   23426   23429   23431   23426   23429   23430   23427   23426   23429
   23427   23426   23428   23428   23426   23429   23429   23432   23435
   23429   23432   23434   23429   23432   23433   23430   23429   23432
   23430   23429   23431   23431   23429   23432   23432   23435   23438
   23432   23435   23437   23432   23435   23436   23433   23432   23435
   23433   23432   23434   23434   23432   23435   23436   23435   23438
   23436   23435   23437   23437   23435   23438   23439   23451   23454
   23439   23451   23453   23439   23451   23452   23439   23447   23450
   23439   23447   23449   23439   23447   23448   23439   23443   23446
   23439   23443   23445   23439   23443   23444   23439   23440   23455
   23439   23440   23442   23439   23440   23441   23440   23455   23461
   23440   23455   23457   23440   23455   23456   23441   23440   23455
   23441   23440   23442   23442   23440   23455   23440   23439   23443
   23443   23439   23451   23443   23439   23447   23444   23443   23446
   23444   23443   23445   23445   23443   23446   23440   23439   23447
   23447   23439   23451   23448   23447   23450   23448   23447   23449
   23449   23447   23450   23440   23439   23451   23452   23451   23454
   23452   23451   23453   23453   23451   23454   23455   23461   23458
   23456   23455   23461   23456   23455   23457   23457   23455   23461
   23459   23458   23460   23460   23458   23461   23459   23458   23461
   23461   23458   23462   23462   23463   23466   23462   23463   23465
   23462   23463   23464   23460   23458   23462   23459   23458   23462
   23463   23466   23468   23463   23466   23474   23463   23466   23467
   23458   23462   23463   23464   23463   23466   23464   23463   23465
   23465   23463   23466   23466   23474   23477   23466   23474   23476
   23466   23474   23475   23466   23468   23469   23467   23466   23468
   23467   23466   23474   23468   23469   23470   23468   23469   23471
   23469   23471   23483   23469   23471   23473   23469   23471   23472
   23471   23483   23486   23471   23483   23485   23471   23483   23484
   23470   23469   23471   23472   23471   23483   23472   23471   23473
   23473   23471   23483   23474   23477   23478   23468   23466   23474
   23475   23474   23477   23475   23474   23476   23476   23474   23477
   23477   23478   23479   23477   23478   23480   23478   23480   23530
   23478   23480   23482   23478   23480   23481   23480   23530   23533
   23480   23530   23532   23480   23530   23531   23479   23478   23480
   23481   23480   23530   23481   23480   23482   23482   23480   23530
   23483   23486   23489   23483   23486   23488   23483   23486   23487
   23484   23483   23486   23484   23483   23485   23485   23483   23486
   23486   23489   23492   23486   23489   23491   23486   23489   23490
   23487   23486   23489   23487   23486   23488   23488   23486   23489
   23489   23492   23495   23489   23492   23494   23489   23492   23493
   23490   23489   23492   23490   23489   23491   23491   23489   23492
   23492   23495   23498   23492   23495   23497   23492   23495   23496
   23493   23492   23495   23493   23492   23494   23494   23492   23495
   23495   23498   23501   23495   23498   23500   23495   23498   23499
   23496   23495   23498   23496   23495   23497   23497   23495   23498
   23498   23501   23503   23498   23501   23502   23499   23498   23501
   23499   23498   23500   23500   23498   23501   23501   23503   23505
   23501   23503   23504   23502   23501   23503   23503   23505   23508
   23503   23505   23507   23503   23505   23506   23504   23503   23505
   23505   23508   23511   23505   23508   23510   23505   23508   23509
   23506   23505   23508   23506   23505   23507   23507   23505   23508
   23508   23511   23514   23508   23511   23513   23508   23511   23512
   23509   23508   23511   23509   23508   23510   23510   23508   23511
   23511   23514   23517   23511   23514   23516   23511   23514   23515
   23512   23511   23514   23512   23511   23513   23513   23511   23514
   23514   23517   23520   23514   23517   23519   23514   23517   23518
   23515   23514   23517   23515   23514   23516   23516   23514   23517
   23517   23520   23523   23517   23520   23522   23517   23520   23521
   23518   23517   23520   23518   23517   23519   23519   23517   23520
   23520   23523   23526   23520   23523   23525   23520   23523   23524
   23521   23520   23523   23521   23520   23522   23522   23520   23523
   23523   23526   23529   23523   23526   23528   23523   23526   23527
   23524   23523   23526   23524   23523   23525   23525   23523   23526
   23527   23526   23529   23527   23526   23528   23528   23526   23529
   23530   23533   23536   23530   23533   23535   23530   23533   23534
   23531   23530   23533   23531   23530   23532   23532   23530   23533
   23533   23536   23539   23533   23536   23538   23533   23536   23537
   23534   23533   23536   23534   23533   23535   23535   23533   23536
   23536   23539   23542   23536   23539   23541   23536   23539   23540
   23537   23536   23539   23537   23536   23538   23538   23536   23539
   23539   23542   23545   23539   23542   23544   23539   23542   23543
   23540   23539   23542   23540   23539   23541   23541   23539   23542
   23542   23545   23548   23542   23545   23547   23542   23545   23546
   23543   23542   23545   23543   23542   23544   23544   23542   23545
   23545   23548   23551   23545   23548   23550   23545   23548   23549
   23546   23545   23548   23546   23545   23547   23547   23545   23548
   23548   23551   23554   23548   23551   23553   23548   23551   23552
   23549   23548   23551   23549   23548   23550   23550   23548   23551
   23551   23554   23557   23551   23554   23556   23551   23554   23555
   23552   23551   23554   23552   23551   23553   23553   23551   23554
   23554   23557   23560   23554   23557   23559   23554   23557   23558
   23555   23554   23557   23555   23554   23556   23556   23554   23557
   23557   23560   23563   23557   23560   23562   23557   23560   23561
   23558   23557   23560   23558   23557   23559   23559   23557   23560
   23560   23563   23566   23560   23563   23565   23560   23563   23564
   23561   23560   23563   23561   23560   23562   23562   23560   23563
   23563   23566   23569   23563   23566   23568   23563   23566   23567
   23564   23563   23566   23564   23563   23565   23565   23563   23566
   23566   23569   23572   23566   23569   23571   23566   23569   23570
   23567   23566   23569   23567   23566   23568   23568   23566   23569
   23570   23569   23572   23570   23569   23571   23571   23569   23572
   23573   23582   23585   23573   23582   23584   23573   23582   23583
   23573   23578   23581   23573   23578   23580   23573   23578   23579
   23573   23574   23577   23573   23574   23576   23573   23574   23575
   23575   23574   23577   23575   23574   23576   23576   23574   23577
   23574   23573   23578   23579   23578   23581   23579   23578   23580
   23580   23578   23581   23574   23573   23582   23578   23573   23582
   23583   23582   23585   23583   23582   23584   23584   23582   23585
   23574   23573   23586   23578   23573   23586   23582   23573   23586
   23573   23586   23587   23587   23586   23588   23573   23586   23588
   23573   23586   23589   23588   23586   23589   23587   23586   23589
   23586   23589   23590   23590   23589   23591   23586   23589   23591
   23589   23596   23592   23593   23592   23594   23594   23592   23595
   23593   23592   23595   23595   23592   23596   23594   23592   23596
   23593   23592   23596   23586   23589   23596   23591   23589   23596
   23590   23589   23596   23597   23602   23600   23592   23595   23597
   23595   23597   23598   23598   23597   23599   23595   23597   23599
   23600   23652   23653   23600   23652   23654   23601   23600   23652
   23602   23600   23652   23601   23600   23602   23595   23597   23602
   23599   23597   23602   23598   23597   23602   23600   23602   23603
   23597   23602   23603   23604   23608   23610   23604   23606   23607
   23600   23602   23604   23597   23602   23604   23603   23602   23604
   23602   23604   23605   23605   23604   23606   23602   23604   23606
   23602   23604   23608   23606   23604   23608   23605   23604   23608
   23609   23608   23610   23604   23608   23609   23608   23610   23611
   23608   23610   23612   23611   23610   23612   23610   23612   23613
   23613   23612   23614   23610   23612   23614   23610   23612   23615
   23614   23612   23615   23613   23612   23615   23612   23615   23616
   23616   23615   23617   23612   23615   23617   23612   23615   23618
   23617   23615   23618   23616   23615   23618   23615   23618   23619
   23619   23618   23620   23615   23618   23620   23615   23618   23621
   23620   23618   23621   23619   23618   23621   23618   23621   23622
   23622   23621   23623   23618   23621   23623   23618   23621   23624
   23623   23621   23624   23622   23621   23624   23621   23624   23625
   23625   23624   23626   23621   23624   23626   23621   23624   23627
   23626   23624   23627   23625   23624   23627   23624   23627   23628
   23628   23627   23629   23624   23627   23629   23624   23627   23630
   23629   23627   23630   23628   23627   23630   23627   23630   23631
   23631   23630   23632   23627   23630   23632   23627   23630   23633
   23632   23630   23633   23631   23630   23633   23630   23633   23634
   23634   23633   23635   23630   23633   23635   23630   23633   23636
   23635   23633   23636   23634   23633   23636   23633   23636   23637
   23637   23636   23638   23633   23636   23638   23633   23636   23639
   23638   23636   23639   23637   23636   23639   23636   23639   23640
   23640   23639   23641   23636   23639   23641   23636   23639   23642
   23641   23639   23642   23640   23639   23642   23639   23642   23643
   23643   23642   23644   23639   23642   23644   23639   23642   23645
   23644   23642   23645   23643   23642   23645   23642   23645   23646
   23646   23645   23647   23642   23645   23647   23642   23645   23648
   23647   23645   23648   23646   23645   23648   23645   23648   23649
   23649   23648   23651   23649   23648   23650   23645   23648   23650
   23650   23648   23651   23645   23648   23651   23652   23654   23657
   23652   23654   23656   23652   23654   23655   23654   23657   23660
   23654   23657   23659   23654   23657   23658   23653   23652   23654
   23655   23654   23657   23655   23654   23656   23656   23654   23657
   23657   23660   23663   23657   23660   23662   23657   23660   23661
   23658   23657   23660   23658   23657   23659   23659   23657   23660
   23660   23663   23666   23660   23663   23665   23660   23663   23664
   23661   23660   23663   23661   23660   23662   23662   23660   23663
   23663   23666   23669   23663   23666   23668   23663   23666   23667
   23664   23663   23666   23664   23663   23665   23665   23663   23666
   23666   23669   23672   23666   23669   23671   23666   23669   23670
   23667   23666   23669   23667   23666   23668   23668   23666   23669
   23669   23672   23675   23669   23672   23674   23669   23672   23673
   23670   23669   23672   23670   23669   23671   23671   23669   23672
   23672   23675   23678   23672   23675   23677   23672   23675   23676
   23673   23672   23675   23673   23672   23674   23674   23672   23675
   23675   23678   23681   23675   23678   23680   23675   23678   23679
   23676   23675   23678   23676   23675   23677   23677   23675   23678
   23678   23681   23684   23678   23681   23683   23678   23681   23682
   23679   23678   23681   23679   23678   23680   23680   23678   23681
   23681   23684   23687   23681   23684   23686   23681   23684   23685
   23682   23681   23684   23682   23681   23683   23683   23681   23684
   23684   23687   23690   23684   23687   23689   23684   23687   23688
   23685   23684   23687   23685   23684   23686   23686   23684   23687
   23687   23690   23693   23687   23690   23692   23687   23690   23691
   23688   23687   23690   23688   23687   23689   23689   23687   23690
   23690   23693   23696   23690   23693   23695   23690   23693   23694
   23691   23690   23693   23691   23690   23692   23692   23690   23693
   23693   23696   23699   23693   23696   23698   23693   23696   23697
   23694   23693   23696   23694   23693   23695   23695   23693   23696
   23697   23696   23699   23697   23696   23698   23698   23696   23699
   23700   23712   23715   23700   23712   23714   23700   23712   23713
   23700   23708   23711   23700   23708   23710   23700   23708   23709
   23700   23704   23707   23700   23704   23706   23700   23704   23705
   23700   23701   23716   23700   23701   23703   23700   23701   23702
   23701   23716   23722   23701   23716   23718   23701   23716   23717
   23702   23701   23716   23702   23701   23703   23703   23701   23716
   23701   23700   23704   23704   23700   23712   23704   23700   23708
   23705   23704   23707   23705   23704   23706   23706   23704   23707
   23701   23700   23708   23708   23700   23712   23709   23708   23711
   23709   23708   23710   23710   23708   23711   23701   23700   23712
   23713   23712   23715   23713   23712   23714   23714   23712   23715
   23716   23722   23719   23717   23716   23722   23717   23716   23718
   23718   23716   23722   23720   23719   23721   23721   23719   23722
   23720   23719   23722   23722   23719   23723   23723   23724   23727
   23723   23724   23726   23723   23724   23725   23721   23719   23723
   23720   23719   23723   23724   23727   23729   23724   23727   23735
   23724   23727   23728   23719   23723   23724   23725   23724   23727
   23725   23724   23726   23726   23724   23727   23727   23735   23738
   23727   23735   23737   23727   23735   23736   23727   23729   23730
   23728   23727   23729   23728   23727   23735   23729   23730   23731
   23729   23730   23732   23730   23732   23744   23730   23732   23734
   23730   23732   23733   23732   23744   23747   23732   23744   23746
   23732   23744   23745   23731   23730   23732   23733   23732   23744
   23733   23732   23734   23734   23732   23744   23735   23738   23739
   23729   23727   23735   23736   23735   23738   23736   23735   23737
   23737   23735   23738   23738   23739   23740   23738   23739   23741
   23739   23741   23791   23739   23741   23743   23739   23741   23742
   23741   23791   23794   23741   23791   23793   23741   23791   23792
   23740   23739   23741   23742   23741   23791   23742   23741   23743
   23743   23741   23791   23744   23747   23750   23744   23747   23749
   23744   23747   23748   23745   23744   23747   23745   23744   23746
   23746   23744   23747   23747   23750   23753   23747   23750   23752
   23747   23750   23751   23748   23747   23750   23748   23747   23749
   23749   23747   23750   23750   23753   23756   23750   23753   23755
   23750   23753   23754   23751   23750   23753   23751   23750   23752
   23752   23750   23753   23753   23756   23759   23753   23756   23758
   23753   23756   23757   23754   23753   23756   23754   23753   23755
   23755   23753   23756   23756   23759   23762   23756   23759   23761
   23756   23759   23760   23757   23756   23759   23757   23756   23758
   23758   23756   23759   23759   23762   23764   23759   23762   23763
   23760   23759   23762   23760   23759   23761   23761   23759   23762
   23762   23764   23766   23762   23764   23765   23763   23762   23764
   23764   23766   23769   23764   23766   23768   23764   23766   23767
   23765   23764   23766   23766   23769   23772   23766   23769   23771
   23766   23769   23770   23767   23766   23769   23767   23766   23768
   23768   23766   23769   23769   23772   23775   23769   23772   23774
   23769   23772   23773   23770   23769   23772   23770   23769   23771
   23771   23769   23772   23772   23775   23778   23772   23775   23777
   23772   23775   23776   23773   23772   23775   23773   23772   23774
   23774   23772   23775   23775   23778   23781   23775   23778   23780
   23775   23778   23779   23776   23775   23778   23776   23775   23777
   23777   23775   23778   23778   23781   23784   23778   23781   23783
   23778   23781   23782   23779   23778   23781   23779   23778   23780
   23780   23778   23781   23781   23784   23787   23781   23784   23786
   23781   23784   23785   23782   23781   23784   23782   23781   23783
   23783   23781   23784   23784   23787   23790   23784   23787   23789
   23784   23787   23788   23785   23784   23787   23785   23784   23786
   23786   23784   23787   23788   23787   23790   23788   23787   23789
   23789   23787   23790   23791   23794   23797   23791   23794   23796
   23791   23794   23795   23792   23791   23794   23792   23791   23793
   23793   23791   23794   23794   23797   23800   23794   23797   23799
   23794   23797   23798   23795   23794   23797   23795   23794   23796
   23796   23794   23797   23797   23800   23803   23797   23800   23802
   23797   23800   23801   23798   23797   23800   23798   23797   23799
   23799   23797   23800   23800   23803   23806   23800   23803   23805
   23800   23803   23804   23801   23800   23803   23801   23800   23802
   23802   23800   23803   23803   23806   23809   23803   23806   23808
   23803   23806   23807   23804   23803   23806   23804   23803   23805
   23805   23803   23806   23806   23809   23812   23806   23809   23811
   23806   23809   23810   23807   23806   23809   23807   23806   23808
   23808   23806   23809   23809   23812   23815   23809   23812   23814
   23809   23812   23813   23810   23809   23812   23810   23809   23811
   23811   23809   23812   23812   23815   23818   23812   23815   23817
   23812   23815   23816   23813   23812   23815   23813   23812   23814
   23814   23812   23815   23815   23818   23821   23815   23818   23820
   23815   23818   23819   23816   23815   23818   23816   23815   23817
   23817   23815   23818   23818   23821   23824   23818   23821   23823
   23818   23821   23822   23819   23818   23821   23819   23818   23820
   23820   23818   23821   23821   23824   23827   23821   23824   23826
   23821   23824   23825   23822   23821   23824   23822   23821   23823
   23823   23821   23824   23824   23827   23830   23824   23827   23829
   23824   23827   23828   23825   23824   23827   23825   23824   23826
   23826   23824   23827   23827   23830   23833   23827   23830   23832
   23827   23830   23831   23828   23827   23830   23828   23827   23829
   23829   23827   23830   23831   23830   23833   23831   23830   23832
   23832   23830   23833   23834   23843   23846   23834   23843   23845
   23834   23843   23844   23834   23839   23842   23834   23839   23841
   23834   23839   23840   23834   23835   23838   23834   23835   23837
   23834   23835   23836   23836   23835   23838   23836   23835   23837
   23837   23835   23838   23835   23834   23839   23840   23839   23842
   23840   23839   23841   23841   23839   23842   23835   23834   23843
   23839   23834   23843   23844   23843   23846   23844   23843   23845
   23845   23843   23846   23835   23834   23847   23839   23834   23847
   23843   23834   23847   23834   23847   23848   23848   23847   23849
   23834   23847   23849   23834   23847   23850   23849   23847   23850
   23848   23847   23850   23847   23850   23851   23851   23850   23852
   23847   23850   23852   23850   23857   23853   23854   23853   23855
   23855   23853   23856   23854   23853   23856   23856   23853   23857
   23855   23853   23857   23854   23853   23857   23847   23850   23857
   23852   23850   23857   23851   23850   23857   23858   23863   23861
   23853   23856   23858   23856   23858   23859   23859   23858   23860
   23856   23858   23860   23861   23913   23914   23861   23913   23915
   23862   23861   23913   23863   23861   23913   23862   23861   23863
   23856   23858   23863   23860   23858   23863   23859   23858   23863
   23861   23863   23864   23858   23863   23864   23865   23869   23871
   23865   23867   23868   23861   23863   23865   23858   23863   23865
   23864   23863   23865   23863   23865   23866   23866   23865   23867
   23863   23865   23867   23863   23865   23869   23867   23865   23869
   23866   23865   23869   23870   23869   23871   23865   23869   23870
   23869   23871   23872   23869   23871   23873   23872   23871   23873
   23871   23873   23874   23874   23873   23875   23871   23873   23875
   23871   23873   23876   23875   23873   23876   23874   23873   23876
   23873   23876   23877   23877   23876   23878   23873   23876   23878
   23873   23876   23879   23878   23876   23879   23877   23876   23879
   23876   23879   23880   23880   23879   23881   23876   23879   23881
   23876   23879   23882   23881   23879   23882   23880   23879   23882
   23879   23882   23883   23883   23882   23884   23879   23882   23884
   23879   23882   23885   23884   23882   23885   23883   23882   23885
   23882   23885   23886   23886   23885   23887   23882   23885   23887
   23882   23885   23888   23887   23885   23888   23886   23885   23888
   23885   23888   23889   23889   23888   23890   23885   23888   23890
   23885   23888   23891   23890   23888   23891   23889   23888   23891
   23888   23891   23892   23892   23891   23893   23888   23891   23893
   23888   23891   23894   23893   23891   23894   23892   23891   23894
   23891   23894   23895   23895   23894   23896   23891   23894   23896
   23891   23894   23897   23896   23894   23897   23895   23894   23897
   23894   23897   23898   23898   23897   23899   23894   23897   23899
   23894   23897   23900   23899   23897   23900   23898   23897   23900
   23897   23900   23901   23901   23900   23902   23897   23900   23902
   23897   23900   23903   23902   23900   23903   23901   23900   23903
   23900   23903   23904   23904   23903   23905   23900   23903   23905
   23900   23903   23906   23905   23903   23906   23904   23903   23906
   23903   23906   23907   23907   23906   23908   23903   23906   23908
   23903   23906   23909   23908   23906   23909   23907   23906   23909
   23906   23909   23910   23910   23909   23912   23910   23909   23911
   23906   23909   23911   23911   23909   23912   23906   23909   23912
   23913   23915   23918   23913   23915   23917   23913   23915   23916
   23915   23918   23921   23915   23918   23920   23915   23918   23919
   23914   23913   23915   23916   23915   23918   23916   23915   23917
   23917   23915   23918   23918   23921   23924   23918   23921   23923
   23918   23921   23922   23919   23918   23921   23919   23918   23920
   23920   23918   23921   23921   23924   23927   23921   23924   23926
   23921   23924   23925   23922   23921   23924   23922   23921   23923
   23923   23921   23924   23924   23927   23930   23924   23927   23929
   23924   23927   23928   23925   23924   23927   23925   23924   23926
   23926   23924   23927   23927   23930   23933   23927   23930   23932
   23927   23930   23931   23928   23927   23930   23928   23927   23929
   23929   23927   23930   23930   23933   23936   23930   23933   23935
   23930   23933   23934   23931   23930   23933   23931   23930   23932
   23932   23930   23933   23933   23936   23939   23933   23936   23938
   23933   23936   23937   23934   23933   23936   23934   23933   23935
   23935   23933   23936   23936   23939   23942   23936   23939   23941
   23936   23939   23940   23937   23936   23939   23937   23936   23938
   23938   23936   23939   23939   23942   23945   23939   23942   23944
   23939   23942   23943   23940   23939   23942   23940   23939   23941
   23941   23939   23942   23942   23945   23948   23942   23945   23947
   23942   23945   23946   23943   23942   23945   23943   23942   23944
   23944   23942   23945   23945   23948   23951   23945   23948   23950
   23945   23948   23949   23946   23945   23948   23946   23945   23947
   23947   23945   23948   23948   23951   23954   23948   23951   23953
   23948   23951   23952   23949   23948   23951   23949   23948   23950
   23950   23948   23951   23951   23954   23957   23951   23954   23956
   23951   23954   23955   23952   23951   23954   23952   23951   23953
   23953   23951   23954   23954   23957   23960   23954   23957   23959
   23954   23957   23958   23955   23954   23957   23955   23954   23956
   23956   23954   23957   23958   23957   23960   23958   23957   23959
   23959   23957   23960   23961   23965   23968   23961   23965   23967
   23961   23965   23966   23962   23961   23965   23962   23961   23964
   23962   23961   23963   23963   23961   23965   23963   23961   23964
   23964   23961   23965   23965   23968   23975   23965   23968   23970
   23965   23968   23969   23966   23965   23968   23966   23965   23967
   23967   23965   23968   23968   23975   23971   23969   23968   23975
   23969   23968   23970   23970   23968   23975   23971   23974   23976
   23972   23971   23973   23973   23971   23974   23972   23971   23974
   23973   23971   23975   23972   23971   23975   23974   23971   23975
   23976   23979   23981   23976   23979   23987   23976   23979   23980
   23974   23976   23977   23977   23976   23979   23977   23976   23978
   23974   23976   23978   23978   23976   23979   23979   23987   23990
   23979   23987   23989   23979   23987   23988   23979   23981   23982
   23974   23976   23979   23980   23979   23981   23980   23979   23987
   23981   23982   23983   23981   23982   23984   23982   23984   23996
   23982   23984   23986   23982   23984   23985   23984   23996   23999
   23984   23996   23998   23984   23996   23997   23983   23982   23984
   23985   23984   23996   23985   23984   23986   23986   23984   23996
   23987   23990   23991   23981   23979   23987   23988   23987   23990
   23988   23987   23989   23989   23987   23990   23990   23991   23992
   23990   23991   23993   23991   23993   24043   23991   23993   23995
   23991   23993   23994   23993   24043   24046   23993   24043   24045
   23993   24043   24044   23992   23991   23993   23994   23993   24043
   23994   23993   23995   23995   23993   24043   23996   23999   24002
   23996   23999   24001   23996   23999   24000   23997   23996   23999
   23997   23996   23998   23998   23996   23999   23999   24002   24005
   23999   24002   24004   23999   24002   24003   24000   23999   24002
   24000   23999   24001   24001   23999   24002   24002   24005   24008
   24002   24005   24007   24002   24005   24006   24003   24002   24005
   24003   24002   24004   24004   24002   24005   24005   24008   24011
   24005   24008   24010   24005   24008   24009   24006   24005   24008
   24006   24005   24007   24007   24005   24008   24008   24011   24014
   24008   24011   24013   24008   24011   24012   24009   24008   24011
   24009   24008   24010   24010   24008   24011   24011   24014   24016
   24011   24014   24015   24012   24011   24014   24012   24011   24013
   24013   24011   24014   24014   24016   24018   24014   24016   24017
   24015   24014   24016   24016   24018   24021   24016   24018   24020
   24016   24018   24019   24017   24016   24018   24018   24021   24024
   24018   24021   24023   24018   24021   24022   24019   24018   24021
   24019   24018   24020   24020   24018   24021   24021   24024   24027
   24021   24024   24026   24021   24024   24025   24022   24021   24024
   24022   24021   24023   24023   24021   24024   24024   24027   24030
   24024   24027   24029   24024   24027   24028   24025   24024   24027
   24025   24024   24026   24026   24024   24027   24027   24030   24033
   24027   24030   24032   24027   24030   24031   24028   24027   24030
   24028   24027   24029   24029   24027   24030   24030   24033   24036
   24030   24033   24035   24030   24033   24034   24031   24030   24033
   24031   24030   24032   24032   24030   24033   24033   24036   24039
   24033   24036   24038   24033   24036   24037   24034   24033   24036
   24034   24033   24035   24035   24033   24036   24036   24039   24042
   24036   24039   24041   24036   24039   24040   24037   24036   24039
   24037   24036   24038   24038   24036   24039   24040   24039   24042
   24040   24039   24041   24041   24039   24042   24043   24046   24049
   24043   24046   24048   24043   24046   24047   24044   24043   24046
   24044   24043   24045   24045   24043   24046   24046   24049   24052
   24046   24049   24051   24046   24049   24050   24047   24046   24049
   24047   24046   24048   24048   24046   24049   24049   24052   24055
   24049   24052   24054   24049   24052   24053   24050   24049   24052
   24050   24049   24051   24051   24049   24052   24052   24055   24058
   24052   24055   24057   24052   24055   24056   24053   24052   24055
   24053   24052   24054   24054   24052   24055   24055   24058   24061
   24055   24058   24060   24055   24058   24059   24056   24055   24058
   24056   24055   24057   24057   24055   24058   24058   24061   24064
   24058   24061   24063   24058   24061   24062   24059   24058   24061
   24059   24058   24060   24060   24058   24061   24061   24064   24067
   24061   24064   24066   24061   24064   24065   24062   24061   24064
   24062   24061   24063   24063   24061   24064   24064   24067   24070
   24064   24067   24069   24064   24067   24068   24065   24064   24067
   24065   24064   24066   24066   24064   24067   24067   24070   24073
   24067   24070   24072   24067   24070   24071   24068   24067   24070
   24068   24067   24069   24069   24067   24070   24070   24073   24076
   24070   24073   24075   24070   24073   24074   24071   24070   24073
   24071   24070   24072   24072   24070   24073   24073   24076   24079
   24073   24076   24078   24073   24076   24077   24074   24073   24076
   24074   24073   24075   24075   24073   24076   24076   24079   24082
   24076   24079   24081   24076   24079   24080   24077   24076   24079
   24077   24076   24078   24078   24076   24079   24079   24082   24085
   24079   24082   24084   24079   24082   24083   24080   24079   24082
   24080   24079   24081   24081   24079   24082   24083   24082   24085
   24083   24082   24084   24084   24082   24085   24086   24090   24095
   24086   24090   24091   24086   24090   24092   24087   24086   24090
   24087   24086   24089   24087   24086   24088   24088   24086   24090
   24088   24086   24089   24089   24086   24090   24090   24095   24101
   24090   24095   24097   24090   24095   24096   24090   24092   24093
   24091   24090   24095   24092   24090   24095   24091   24090   24092
   24093   24092   24094   24090   24092   24094   24095   24101   24098
   24096   24095   24101   24096   24095   24097   24097   24095   24101
   24099   24098   24100   24100   24098   24101   24099   24098   24101
   24101   24098   24102   24102   24103   24106   24102   24103   24105
   24102   24103   24104   24100   24098   24102   24099   24098   24102
   24103   24106   24108   24103   24106   24114   24103   24106   24107
   24098   24102   24103   24104   24103   24106   24104   24103   24105
   24105   24103   24106   24106   24114   24117   24106   24114   24116
   24106   24114   24115   24106   24108   24109   24107   24106   24108
   24107   24106   24114   24108   24109   24110   24108   24109   24111
   24109   24111   24123   24109   24111   24113   24109   24111   24112
   24111   24123   24126   24111   24123   24125   24111   24123   24124
   24110   24109   24111   24112   24111   24123   24112   24111   24113
   24113   24111   24123   24114   24117   24118   24108   24106   24114
   24115   24114   24117   24115   24114   24116   24116   24114   24117
   24117   24118   24119   24117   24118   24120   24118   24120   24170
   24118   24120   24122   24118   24120   24121   24120   24170   24173
   24120   24170   24172   24120   24170   24171   24119   24118   24120
   24121   24120   24170   24121   24120   24122   24122   24120   24170
   24123   24126   24129   24123   24126   24128   24123   24126   24127
   24124   24123   24126   24124   24123   24125   24125   24123   24126
   24126   24129   24132   24126   24129   24131   24126   24129   24130
   24127   24126   24129   24127   24126   24128   24128   24126   24129
   24129   24132   24135   24129   24132   24134   24129   24132   24133
   24130   24129   24132   24130   24129   24131   24131   24129   24132
   24132   24135   24138   24132   24135   24137   24132   24135   24136
   24133   24132   24135   24133   24132   24134   24134   24132   24135
   24135   24138   24141   24135   24138   24140   24135   24138   24139
   24136   24135   24138   24136   24135   24137   24137   24135   24138
   24138   24141   24143   24138   24141   24142   24139   24138   24141
   24139   24138   24140   24140   24138   24141   24141   24143   24145
   24141   24143   24144   24142   24141   24143   24143   24145   24148
   24143   24145   24147   24143   24145   24146   24144   24143   24145
   24145   24148   24151   24145   24148   24150   24145   24148   24149
   24146   24145   24148   24146   24145   24147   24147   24145   24148
   24148   24151   24154   24148   24151   24153   24148   24151   24152
   24149   24148   24151   24149   24148   24150   24150   24148   24151
   24151   24154   24157   24151   24154   24156   24151   24154   24155
   24152   24151   24154   24152   24151   24153   24153   24151   24154
   24154   24157   24160   24154   24157   24159   24154   24157   24158
   24155   24154   24157   24155   24154   24156   24156   24154   24157
   24157   24160   24163   24157   24160   24162   24157   24160   24161
   24158   24157   24160   24158   24157   24159   24159   24157   24160
   24160   24163   24166   24160   24163   24165   24160   24163   24164
   24161   24160   24163   24161   24160   24162   24162   24160   24163
   24163   24166   24169   24163   24166   24168   24163   24166   24167
   24164   24163   24166   24164   24163   24165   24165   24163   24166
   24167   24166   24169   24167   24166   24168   24168   24166   24169
   24170   24173   24176   24170   24173   24175   24170   24173   24174
   24171   24170   24173   24171   24170   24172   24172   24170   24173
   24173   24176   24179   24173   24176   24178   24173   24176   24177
   24174   24173   24176   24174   24173   24175   24175   24173   24176
   24176   24179   24182   24176   24179   24181   24176   24179   24180
   24177   24176   24179   24177   24176   24178   24178   24176   24179
   24179   24182   24185   24179   24182   24184   24179   24182   24183
   24180   24179   24182   24180   24179   24181   24181   24179   24182
   24182   24185   24188   24182   24185   24187   24182   24185   24186
   24183   24182   24185   24183   24182   24184   24184   24182   24185
   24185   24188   24191   24185   24188   24190   24185   24188   24189
   24186   24185   24188   24186   24185   24187   24187   24185   24188
   24188   24191   24194   24188   24191   24193   24188   24191   24192
   24189   24188   24191   24189   24188   24190   24190   24188   24191
   24191   24194   24197   24191   24194   24196   24191   24194   24195
   24192   24191   24194   24192   24191   24193   24193   24191   24194
   24194   24197   24200   24194   24197   24199   24194   24197   24198
   24195   24194   24197   24195   24194   24196   24196   24194   24197
   24197   24200   24203   24197   24200   24202   24197   24200   24201
   24198   24197   24200   24198   24197   24199   24199   24197   24200
   24200   24203   24206   24200   24203   24205   24200   24203   24204
   24201   24200   24203   24201   24200   24202   24202   24200   24203
   24203   24206   24209   24203   24206   24208   24203   24206   24207
   24204   24203   24206   24204   24203   24205   24205   24203   24206
   24206   24209   24212   24206   24209   24211   24206   24209   24210
   24207   24206   24209   24207   24206   24208   24208   24206   24209
   24210   24209   24212   24210   24209   24211   24211   24209   24212
   24213   24225   24228   24213   24225   24227   24213   24225   24226
   24213   24221   24224   24213   24221   24223   24213   24221   24222
   24213   24217   24220   24213   24217   24219   24213   24217   24218
   24213   24214   24229   24213   24214   24216   24213   24214   24215
   24214   24229   24235   24214   24229   24231   24214   24229   24230
   24215   24214   24229   24215   24214   24216   24216   24214   24229
   24214   24213   24217   24217   24213   24225   24217   24213   24221
   24218   24217   24220   24218   24217   24219   24219   24217   24220
   24214   24213   24221   24221   24213   24225   24222   24221   24224
   24222   24221   24223   24223   24221   24224   24214   24213   24225
   24226   24225   24228   24226   24225   24227   24227   24225   24228
   24229   24235   24232   24230   24229   24235   24230   24229   24231
   24231   24229   24235   24233   24232   24234   24234   24232   24235
   24233   24232   24235   24235   24232   24236   24236   24237   24240
   24236   24237   24239   24236   24237   24238   24234   24232   24236
   24233   24232   24236   24237   24240   24242   24237   24240   24248
   24237   24240   24241   24232   24236   24237   24238   24237   24240
   24238   24237   24239   24239   24237   24240   24240   24248   24251
   24240   24248   24250   24240   24248   24249   24240   24242   24243
   24241   24240   24242   24241   24240   24248   24242   24243   24244
   24242   24243   24245   24243   24245   24257   24243   24245   24247
   24243   24245   24246   24245   24257   24260   24245   24257   24259
   24245   24257   24258   24244   24243   24245   24246   24245   24257
   24246   24245   24247   24247   24245   24257   24248   24251   24252
   24242   24240   24248   24249   24248   24251   24249   24248   24250
   24250   24248   24251   24251   24252   24253   24251   24252   24254
   24252   24254   24304   24252   24254   24256   24252   24254   24255
   24254   24304   24307   24254   24304   24306   24254   24304   24305
   24253   24252   24254   24255   24254   24304   24255   24254   24256
   24256   24254   24304   24257   24260   24263   24257   24260   24262
   24257   24260   24261   24258   24257   24260   24258   24257   24259
   24259   24257   24260   24260   24263   24266   24260   24263   24265
   24260   24263   24264   24261   24260   24263   24261   24260   24262
   24262   24260   24263   24263   24266   24269   24263   24266   24268
   24263   24266   24267   24264   24263   24266   24264   24263   24265
   24265   24263   24266   24266   24269   24272   24266   24269   24271
   24266   24269   24270   24267   24266   24269   24267   24266   24268
   24268   24266   24269   24269   24272   24275   24269   24272   24274
   24269   24272   24273   24270   24269   24272   24270   24269   24271
   24271   24269   24272   24272   24275   24277   24272   24275   24276
   24273   24272   24275   24273   24272   24274   24274   24272   24275
   24275   24277   24279   24275   24277   24278   24276   24275   24277
   24277   24279   24282   24277   24279   24281   24277   24279   24280
   24278   24277   24279   24279   24282   24285   24279   24282   24284
   24279   24282   24283   24280   24279   24282   24280   24279   24281
   24281   24279   24282   24282   24285   24288   24282   24285   24287
   24282   24285   24286   24283   24282   24285   24283   24282   24284
   24284   24282   24285   24285   24288   24291   24285   24288   24290
   24285   24288   24289   24286   24285   24288   24286   24285   24287
   24287   24285   24288   24288   24291   24294   24288   24291   24293
   24288   24291   24292   24289   24288   24291   24289   24288   24290
   24290   24288   24291   24291   24294   24297   24291   24294   24296
   24291   24294   24295   24292   24291   24294   24292   24291   24293
   24293   24291   24294   24294   24297   24300   24294   24297   24299
   24294   24297   24298   24295   24294   24297   24295   24294   24296
   24296   24294   24297   24297   24300   24303   24297   24300   24302
   24297   24300   24301   24298   24297   24300   24298   24297   24299
   24299   24297   24300   24301   24300   24303   24301   24300   24302
   24302   24300   24303   24304   24307   24310   24304   24307   24309
   24304   24307   24308   24305   24304   24307   24305   24304   24306
   24306   24304   24307   24307   24310   24313   24307   24310   24312
   24307   24310   24311   24308   24307   24310   24308   24307   24309
   24309   24307   24310   24310   24313   24316   24310   24313   24315
   24310   24313   24314   24311   24310   24313   24311   24310   24312
   24312   24310   24313   24313   24316   24319   24313   24316   24318
   24313   24316   24317   24314   24313   24316   24314   24313   24315
   24315   24313   24316   24316   24319   24322   24316   24319   24321
   24316   24319   24320   24317   24316   24319   24317   24316   24318
   24318   24316   24319   24319   24322   24325   24319   24322   24324
   24319   24322   24323   24320   24319   24322   24320   24319   24321
   24321   24319   24322   24322   24325   24328   24322   24325   24327
   24322   24325   24326   24323   24322   24325   24323   24322   24324
   24324   24322   24325   24325   24328   24331   24325   24328   24330
   24325   24328   24329   24326   24325   24328   24326   24325   24327
   24327   24325   24328   24328   24331   24334   24328   24331   24333
   24328   24331   24332   24329   24328   24331   24329   24328   24330
   24330   24328   24331   24331   24334   24337   24331   24334   24336
   24331   24334   24335   24332   24331   24334   24332   24331   24333
   24333   24331   24334   24334   24337   24340   24334   24337   24339
   24334   24337   24338   24335   24334   24337   24335   24334   24336
   24336   24334   24337   24337   24340   24343   24337   24340   24342
   24337   24340   24341   24338   24337   24340   24338   24337   24339
   24339   24337   24340   24340   24343   24346   24340   24343   24345
   24340   24343   24344   24341   24340   24343   24341   24340   24342
   24342   24340   24343   24344   24343   24346   24344   24343   24345
   24345   24343   24346   24347   24351   24354   24347   24351   24353
   24347   24351   24352   24348   24347   24351   24348   24347   24350
   24348   24347   24349   24349   24347   24351   24349   24347   24350
   24350   24347   24351   24351   24354   24361   24351   24354   24356
   24351   24354   24355   24352   24351   24354   24352   24351   24353
   24353   24351   24354   24354   24361   24357   24355   24354   24361
   24355   24354   24356   24356   24354   24361   24357   24360   24362
   24358   24357   24359   24359   24357   24360   24358   24357   24360
   24359   24357   24361   24358   24357   24361   24360   24357   24361
   24362   24365   24367   24362   24365   24373   24362   24365   24366
   24360   24362   24363   24363   24362   24365   24363   24362   24364
   24360   24362   24364   24364   24362   24365   24365   24373   24376
   24365   24373   24375   24365   24373   24374   24365   24367   24368
   24360   24362   24365   24366   24365   24367   24366   24365   24373
   24367   24368   24369   24367   24368   24370   24368   24370   24382
   24368   24370   24372   24368   24370   24371   24370   24382   24385
   24370   24382   24384   24370   24382   24383   24369   24368   24370
   24371   24370   24382   24371   24370   24372   24372   24370   24382
   24373   24376   24377   24367   24365   24373   24374   24373   24376
   24374   24373   24375   24375   24373   24376   24376   24377   24378
   24376   24377   24379   24377   24379   24429   24377   24379   24381
   24377   24379   24380   24379   24429   24432   24379   24429   24431
   24379   24429   24430   24378   24377   24379   24380   24379   24429
   24380   24379   24381   24381   24379   24429   24382   24385   24388
   24382   24385   24387   24382   24385   24386   24383   24382   24385
   24383   24382   24384   24384   24382   24385   24385   24388   24391
   24385   24388   24390   24385   24388   24389   24386   24385   24388
   24386   24385   24387   24387   24385   24388   24388   24391   24394
   24388   24391   24393   24388   24391   24392   24389   24388   24391
   24389   24388   24390   24390   24388   24391   24391   24394   24397
   24391   24394   24396   24391   24394   24395   24392   24391   24394
   24392   24391   24393   24393   24391   24394   24394   24397   24400
   24394   24397   24399   24394   24397   24398   24395   24394   24397
   24395   24394   24396   24396   24394   24397   24397   24400   24402
   24397   24400   24401   24398   24397   24400   24398   24397   24399
   24399   24397   24400   24400   24402   24404   24400   24402   24403
   24401   24400   24402   24402   24404   24407   24402   24404   24406
   24402   24404   24405   24403   24402   24404   24404   24407   24410
   24404   24407   24409   24404   24407   24408   24405   24404   24407
   24405   24404   24406   24406   24404   24407   24407   24410   24413
   24407   24410   24412   24407   24410   24411   24408   24407   24410
   24408   24407   24409   24409   24407   24410   24410   24413   24416
   24410   24413   24415   24410   24413   24414   24411   24410   24413
   24411   24410   24412   24412   24410   24413   24413   24416   24419
   24413   24416   24418   24413   24416   24417   24414   24413   24416
   24414   24413   24415   24415   24413   24416   24416   24419   24422
   24416   24419   24421   24416   24419   24420   24417   24416   24419
   24417   24416   24418   24418   24416   24419   24419   24422   24425
   24419   24422   24424   24419   24422   24423   24420   24419   24422
   24420   24419   24421   24421   24419   24422   24422   24425   24428
   24422   24425   24427   24422   24425   24426   24423   24422   24425
   24423   24422   24424   24424   24422   24425   24426   24425   24428
   24426   24425   24427   24427   24425   24428   24429   24432   24435
   24429   24432   24434   24429   24432   24433   24430   24429   24432
   24430   24429   24431   24431   24429   24432   24432   24435   24438
   24432   24435   24437   24432   24435   24436   24433   24432   24435
   24433   24432   24434   24434   24432   24435   24435   24438   24441
   24435   24438   24440   24435   24438   24439   24436   24435   24438
   24436   24435   24437   24437   24435   24438   24438   24441   24444
   24438   24441   24443   24438   24441   24442   24439   24438   24441
   24439   24438   24440   24440   24438   24441   24441   24444   24447
   24441   24444   24446   24441   24444   24445   24442   24441   24444
   24442   24441   24443   24443   24441   24444   24444   24447   24450
   24444   24447   24449   24444   24447   24448   24445   24444   24447
   24445   24444   24446   24446   24444   24447   24447   24450   24453
   24447   24450   24452   24447   24450   24451   24448   24447   24450
   24448   24447   24449   24449   24447   24450   24450   24453   24456
   24450   24453   24455   24450   24453   24454   24451   24450   24453
   24451   24450   24452   24452   24450   24453   24453   24456   24459
   24453   24456   24458   24453   24456   24457   24454   24453   24456
   24454   24453   24455   24455   24453   24456   24456   24459   24462
   24456   24459   24461   24456   24459   24460   24457   24456   24459
   24457   24456   24458   24458   24456   24459   24459   24462   24465
   24459   24462   24464   24459   24462   24463   24460   24459   24462
   24460   24459   24461   24461   24459   24462   24462   24465   24468
   24462   24465   24467   24462   24465   24466   24463   24462   24465
   24463   24462   24464   24464   24462   24465   24465   24468   24471
   24465   24468   24470   24465   24468   24469   24466   24465   24468
   24466   24465   24467   24467   24465   24468   24469   24468   24471
   24469   24468   24470   24470   24468   24471   24472   24484   24487
   24472   24484   24486   24472   24484   24485   24472   24480   24483
   24472   24480   24482   24472   24480   24481   24472   24476   24479
   24472   24476   24478   24472   24476   24477   24472   24473   24488
   24472   24473   24475   24472   24473   24474   24473   24488   24494
   24473   24488   24490   24473   24488   24489   24474   24473   24488
   24474   24473   24475   24475   24473   24488   24473   24472   24476
   24476   24472   24484   24476   24472   24480   24477   24476   24479
   24477   24476   24478   24478   24476   24479   24473   24472   24480
   24480   24472   24484   24481   24480   24483   24481   24480   24482
   24482   24480   24483   24473   24472   24484   24485   24484   24487
   24485   24484   24486   24486   24484   24487   24488   24494   24491
   24489   24488   24494   24489   24488   24490   24490   24488   24494
   24492   24491   24493   24493   24491   24494   24492   24491   24494
   24494   24491   24495   24495   24496   24499   24495   24496   24498
   24495   24496   24497   24493   24491   24495   24492   24491   24495
   24496   24499   24501   24496   24499   24507   24496   24499   24500
   24491   24495   24496   24497   24496   24499   24497   24496   24498
   24498   24496   24499   24499   24507   24510   24499   24507   24509
   24499   24507   24508   24499   24501   24502   24500   24499   24501
   24500   24499   24507   24501   24502   24503   24501   24502   24504
   24502   24504   24516   24502   24504   24506   24502   24504   24505
   24504   24516   24519   24504   24516   24518   24504   24516   24517
   24503   24502   24504   24505   24504   24516   24505   24504   24506
   24506   24504   24516   24507   24510   24511   24501   24499   24507
   24508   24507   24510   24508   24507   24509   24509   24507   24510
   24510   24511   24512   24510   24511   24513   24511   24513   24563
   24511   24513   24515   24511   24513   24514   24513   24563   24566
   24513   24563   24565   24513   24563   24564   24512   24511   24513
   24514   24513   24563   24514   24513   24515   24515   24513   24563
   24516   24519   24522   24516   24519   24521   24516   24519   24520
   24517   24516   24519   24517   24516   24518   24518   24516   24519
   24519   24522   24525   24519   24522   24524   24519   24522   24523
   24520   24519   24522   24520   24519   24521   24521   24519   24522
   24522   24525   24528   24522   24525   24527   24522   24525   24526
   24523   24522   24525   24523   24522   24524   24524   24522   24525
   24525   24528   24531   24525   24528   24530   24525   24528   24529
   24526   24525   24528   24526   24525   24527   24527   24525   24528
   24528   24531   24534   24528   24531   24533   24528   24531   24532
   24529   24528   24531   24529   24528   24530   24530   24528   24531
   24531   24534   24536   24531   24534   24535   24532   24531   24534
   24532   24531   24533   24533   24531   24534   24534   24536   24538
   24534   24536   24537   24535   24534   24536   24536   24538   24541
   24536   24538   24540   24536   24538   24539   24537   24536   24538
   24538   24541   24544   24538   24541   24543   24538   24541   24542
   24539   24538   24541   24539   24538   24540   24540   24538   24541
   24541   24544   24547   24541   24544   24546   24541   24544   24545
   24542   24541   24544   24542   24541   24543   24543   24541   24544
   24544   24547   24550   24544   24547   24549   24544   24547   24548
   24545   24544   24547   24545   24544   24546   24546   24544   24547
   24547   24550   24553   24547   24550   24552   24547   24550   24551
   24548   24547   24550   24548   24547   24549   24549   24547   24550
   24550   24553   24556   24550   24553   24555   24550   24553   24554
   24551   24550   24553   24551   24550   24552   24552   24550   24553
   24553   24556   24559   24553   24556   24558   24553   24556   24557
   24554   24553   24556   24554   24553   24555   24555   24553   24556
   24556   24559   24562   24556   24559   24561   24556   24559   24560
   24557   24556   24559   24557   24556   24558   24558   24556   24559
   24560   24559   24562   24560   24559   24561   24561   24559   24562
   24563   24566   24569   24563   24566   24568   24563   24566   24567
   24564   24563   24566   24564   24563   24565   24565   24563   24566
   24566   24569   24572   24566   24569   24571   24566   24569   24570
   24567   24566   24569   24567   24566   24568   24568   24566   24569
   24569   24572   24575   24569   24572   24574   24569   24572   24573
   24570   24569   24572   24570   24569   24571   24571   24569   24572
   24572   24575   24578   24572   24575   24577   24572   24575   24576
   24573   24572   24575   24573   24572   24574   24574   24572   24575
   24575   24578   24581   24575   24578   24580   24575   24578   24579
   24576   24575   24578   24576   24575   24577   24577   24575   24578
   24578   24581   24584   24578   24581   24583   24578   24581   24582
   24579   24578   24581   24579   24578   24580   24580   24578   24581
   24581   24584   24587   24581   24584   24586   24581   24584   24585
   24582   24581   24584   24582   24581   24583   24583   24581   24584
   24584   24587   24590   24584   24587   24589   24584   24587   24588
   24585   24584   24587   24585   24584   24586   24586   24584   24587
   24587   24590   24593   24587   24590   24592   24587   24590   24591
   24588   24587   24590   24588   24587   24589   24589   24587   24590
   24590   24593   24596   24590   24593   24595   24590   24593   24594
   24591   24590   24593   24591   24590   24592   24592   24590   24593
   24593   24596   24599   24593   24596   24598   24593   24596   24597
   24594   24593   24596   24594   24593   24595   24595   24593   24596
   24596   24599   24602   24596   24599   24601   24596   24599   24600
   24597   24596   24599   24597   24596   24598   24598   24596   24599
   24599   24602   24605   24599   24602   24604   24599   24602   24603
   24600   24599   24602   24600   24599   24601   24601   24599   24602
   24603   24602   24605   24603   24602   24604   24604   24602   24605
   24606   24615   24618   24606   24615   24617   24606   24615   24616
   24606   24611   24614   24606   24611   24613   24606   24611   24612
   24606   24607   24610   24606   24607   24609   24606   24607   24608
   24608   24607   24610   24608   24607   24609   24609   24607   24610
   24607   24606   24611   24612   24611   24614   24612   24611   24613
   24613   24611   24614   24607   24606   24615   24611   24606   24615
   24616   24615   24618   24616   24615   24617   24617   24615   24618
   24607   24606   24619   24611   24606   24619   24615   24606   24619
   24606   24619   24620   24620   24619   24621   24606   24619   24621
   24606   24619   24622   24621   24619   24622   24620   24619   24622
   24619   24622   24623   24623   24622   24624   24619   24622   24624
   24622   24629   24625   24626   24625   24627   24627   24625   24628
   24626   24625   24628   24628   24625   24629   24627   24625   24629
   24626   24625   24629   24619   24622   24629   24624   24622   24629
   24623   24622   24629   24630   24635   24633   24625   24628   24630
   24628   24630   24631   24631   24630   24632   24628   24630   24632
   24633   24685   24686   24633   24685   24687   24634   24633   24685
   24635   24633   24685   24634   24633   24635   24628   24630   24635
   24632   24630   24635   24631   24630   24635   24633   24635   24636
   24630   24635   24636   24637   24641   24643   24637   24639   24640
   24633   24635   24637   24630   24635   24637   24636   24635   24637
   24635   24637   24638   24638   24637   24639   24635   24637   24639
   24635   24637   24641   24639   24637   24641   24638   24637   24641
   24642   24641   24643   24637   24641   24642   24641   24643   24644
   24641   24643   24645   24644   24643   24645   24643   24645   24646
   24646   24645   24647   24643   24645   24647   24643   24645   24648
   24647   24645   24648   24646   24645   24648   24645   24648   24649
   24649   24648   24650   24645   24648   24650   24645   24648   24651
   24650   24648   24651   24649   24648   24651   24648   24651   24652
   24652   24651   24653   24648   24651   24653   24648   24651   24654
   24653   24651   24654   24652   24651   24654   24651   24654   24655
   24655   24654   24656   24651   24654   24656   24651   24654   24657
   24656   24654   24657   24655   24654   24657   24654   24657   24658
   24658   24657   24659   24654   24657   24659   24654   24657   24660
   24659   24657   24660   24658   24657   24660   24657   24660   24661
   24661   24660   24662   24657   24660   24662   24657   24660   24663
   24662   24660   24663   24661   24660   24663   24660   24663   24664
   24664   24663   24665   24660   24663   24665   24660   24663   24666
   24665   24663   24666   24664   24663   24666   24663   24666   24667
   24667   24666   24668   24663   24666   24668   24663   24666   24669
   24668   24666   24669   24667   24666   24669   24666   24669   24670
   24670   24669   24671   24666   24669   24671   24666   24669   24672
   24671   24669   24672   24670   24669   24672   24669   24672   24673
   24673   24672   24674   24669   24672   24674   24669   24672   24675
   24674   24672   24675   24673   24672   24675   24672   24675   24676
   24676   24675   24677   24672   24675   24677   24672   24675   24678
   24677   24675   24678   24676   24675   24678   24675   24678   24679
   24679   24678   24680   24675   24678   24680   24675   24678   24681
   24680   24678   24681   24679   24678   24681   24678   24681   24682
   24682   24681   24684   24682   24681   24683   24678   24681   24683
   24683   24681   24684   24678   24681   24684   24685   24687   24690
   24685   24687   24689   24685   24687   24688   24687   24690   24693
   24687   24690   24692   24687   24690   24691   24686   24685   24687
   24688   24687   24690   24688   24687   24689   24689   24687   24690
   24690   24693   24696   24690   24693   24695   24690   24693   24694
   24691   24690   24693   24691   24690   24692   24692   24690   24693
   24693   24696   24699   24693   24696   24698   24693   24696   24697
   24694   24693   24696   24694   24693   24695   24695   24693   24696
   24696   24699   24702   24696   24699   24701   24696   24699   24700
   24697   24696   24699   24697   24696   24698   24698   24696   24699
   24699   24702   24705   24699   24702   24704   24699   24702   24703
   24700   24699   24702   24700   24699   24701   24701   24699   24702
   24702   24705   24708   24702   24705   24707   24702   24705   24706
   24703   24702   24705   24703   24702   24704   24704   24702   24705
   24705   24708   24711   24705   24708   24710   24705   24708   24709
   24706   24705   24708   24706   24705   24707   24707   24705   24708
   24708   24711   24714   24708   24711   24713   24708   24711   24712
   24709   24708   24711   24709   24708   24710   24710   24708   24711
   24711   24714   24717   24711   24714   24716   24711   24714   24715
   24712   24711   24714   24712   24711   24713   24713   24711   24714
   24714   24717   24720   24714   24717   24719   24714   24717   24718
   24715   24714   24717   24715   24714   24716   24716   24714   24717
   24717   24720   24723   24717   24720   24722   24717   24720   24721
   24718   24717   24720   24718   24717   24719   24719   24717   24720
   24720   24723   24726   24720   24723   24725   24720   24723   24724
   24721   24720   24723   24721   24720   24722   24722   24720   24723
   24723   24726   24729   24723   24726   24728   24723   24726   24727
   24724   24723   24726   24724   24723   24725   24725   24723   24726
   24726   24729   24732   24726   24729   24731   24726   24729   24730
   24727   24726   24729   24727   24726   24728   24728   24726   24729
   24730   24729   24732   24730   24729   24731   24731   24729   24732
   24733   24745   24748   24733   24745   24747   24733   24745   24746
   24733   24741   24744   24733   24741   24743   24733   24741   24742
   24733   24737   24740   24733   24737   24739   24733   24737   24738
   24733   24734   24749   24733   24734   24736   24733   24734   24735
   24734   24749   24755   24734   24749   24751   24734   24749   24750
   24735   24734   24749   24735   24734   24736   24736   24734   24749
   24734   24733   24737   24737   24733   24745   24737   24733   24741
   24738   24737   24740   24738   24737   24739   24739   24737   24740
   24734   24733   24741   24741   24733   24745   24742   24741   24744
   24742   24741   24743   24743   24741   24744   24734   24733   24745
   24746   24745   24748   24746   24745   24747   24747   24745   24748
   24749   24755   24752   24750   24749   24755   24750   24749   24751
   24751   24749   24755   24753   24752   24754   24754   24752   24755
   24753   24752   24755   24755   24752   24756   24756   24757   24760
   24756   24757   24759   24756   24757   24758   24754   24752   24756
   24753   24752   24756   24757   24760   24762   24757   24760   24768
   24757   24760   24761   24752   24756   24757   24758   24757   24760
   24758   24757   24759   24759   24757   24760   24760   24768   24771
   24760   24768   24770   24760   24768   24769   24760   24762   24763
   24761   24760   24762   24761   24760   24768   24762   24763   24764
   24762   24763   24765   24763   24765   24777   24763   24765   24767
   24763   24765   24766   24765   24777   24780   24765   24777   24779
   24765   24777   24778   24764   24763   24765   24766   24765   24777
   24766   24765   24767   24767   24765   24777   24768   24771   24772
   24762   24760   24768   24769   24768   24771   24769   24768   24770
   24770   24768   24771   24771   24772   24773   24771   24772   24774
   24772   24774   24824   24772   24774   24776   24772   24774   24775
   24774   24824   24827   24774   24824   24826   24774   24824   24825
   24773   24772   24774   24775   24774   24824   24775   24774   24776
   24776   24774   24824   24777   24780   24783   24777   24780   24782
   24777   24780   24781   24778   24777   24780   24778   24777   24779
   24779   24777   24780   24780   24783   24786   24780   24783   24785
   24780   24783   24784   24781   24780   24783   24781   24780   24782
   24782   24780   24783   24783   24786   24789   24783   24786   24788
   24783   24786   24787   24784   24783   24786   24784   24783   24785
   24785   24783   24786   24786   24789   24792   24786   24789   24791
   24786   24789   24790   24787   24786   24789   24787   24786   24788
   24788   24786   24789   24789   24792   24795   24789   24792   24794
   24789   24792   24793   24790   24789   24792   24790   24789   24791
   24791   24789   24792   24792   24795   24797   24792   24795   24796
   24793   24792   24795   24793   24792   24794   24794   24792   24795
   24795   24797   24799   24795   24797   24798   24796   24795   24797
   24797   24799   24802   24797   24799   24801   24797   24799   24800
   24798   24797   24799   24799   24802   24805   24799   24802   24804
   24799   24802   24803   24800   24799   24802   24800   24799   24801
   24801   24799   24802   24802   24805   24808   24802   24805   24807
   24802   24805   24806   24803   24802   24805   24803   24802   24804
   24804   24802   24805   24805   24808   24811   24805   24808   24810
   24805   24808   24809   24806   24805   24808   24806   24805   24807
   24807   24805   24808   24808   24811   24814   24808   24811   24813
   24808   24811   24812   24809   24808   24811   24809   24808   24810
   24810   24808   24811   24811   24814   24817   24811   24814   24816
   24811   24814   24815   24812   24811   24814   24812   24811   24813
   24813   24811   24814   24814   24817   24820   24814   24817   24819
   24814   24817   24818   24815   24814   24817   24815   24814   24816
   24816   24814   24817   24817   24820   24823   24817   24820   24822
   24817   24820   24821   24818   24817   24820   24818   24817   24819
   24819   24817   24820   24821   24820   24823   24821   24820   24822
   24822   24820   24823   24824   24827   24830   24824   24827   24829
   24824   24827   24828   24825   24824   24827   24825   24824   24826
   24826   24824   24827   24827   24830   24833   24827   24830   24832
   24827   24830   24831   24828   24827   24830   24828   24827   24829
   24829   24827   24830   24830   24833   24836   24830   24833   24835
   24830   24833   24834   24831   24830   24833   24831   24830   24832
   24832   24830   24833   24833   24836   24839   24833   24836   24838
   24833   24836   24837   24834   24833   24836   24834   24833   24835
   24835   24833   24836   24836   24839   24842   24836   24839   24841
   24836   24839   24840   24837   24836   24839   24837   24836   24838
   24838   24836   24839   24839   24842   24845   24839   24842   24844
   24839   24842   24843   24840   24839   24842   24840   24839   24841
   24841   24839   24842   24842   24845   24848   24842   24845   24847
   24842   24845   24846   24843   24842   24845   24843   24842   24844
   24844   24842   24845   24845   24848   24851   24845   24848   24850
   24845   24848   24849   24846   24845   24848   24846   24845   24847
   24847   24845   24848   24848   24851   24854   24848   24851   24853
   24848   24851   24852   24849   24848   24851   24849   24848   24850
   24850   24848   24851   24851   24854   24857   24851   24854   24856
   24851   24854   24855   24852   24851   24854   24852   24851   24853
   24853   24851   24854   24854   24857   24860   24854   24857   24859
   24854   24857   24858   24855   24854   24857   24855   24854   24856
   24856   24854   24857   24857   24860   24863   24857   24860   24862
   24857   24860   24861   24858   24857   24860   24858   24857   24859
   24859   24857   24860   24860   24863   24866   24860   24863   24865
   24860   24863   24864   24861   24860   24863   24861   24860   24862
   24862   24860   24863   24864   24863   24866   24864   24863   24865
   24865   24863   24866   24867   24871   24874   24867   24871   24873
   24867   24871   24872   24868   24867   24871   24868   24867   24870
   24868   24867   24869   24869   24867   24871   24869   24867   24870
   24870   24867   24871   24871   24874   24881   24871   24874   24876
   24871   24874   24875   24872   24871   24874   24872   24871   24873
   24873   24871   24874   24874   24881   24877   24875   24874   24881
   24875   24874   24876   24876   24874   24881   24877   24880   24882
   24878   24877   24879   24879   24877   24880   24878   24877   24880
   24879   24877   24881   24878   24877   24881   24880   24877   24881
   24882   24885   24887   24882   24885   24893   24882   24885   24886
   24880   24882   24883   24883   24882   24885   24883   24882   24884
   24880   24882   24884   24884   24882   24885   24885   24893   24896
   24885   24893   24895   24885   24893   24894   24885   24887   24888
   24880   24882   24885   24886   24885   24887   24886   24885   24893
   24887   24888   24889   24887   24888   24890   24888   24890   24902
   24888   24890   24892   24888   24890   24891   24890   24902   24905
   24890   24902   24904   24890   24902   24903   24889   24888   24890
   24891   24890   24902   24891   24890   24892   24892   24890   24902
   24893   24896   24897   24887   24885   24893   24894   24893   24896
   24894   24893   24895   24895   24893   24896   24896   24897   24898
   24896   24897   24899   24897   24899   24949   24897   24899   24901
   24897   24899   24900   24899   24949   24952   24899   24949   24951
   24899   24949   24950   24898   24897   24899   24900   24899   24949
   24900   24899   24901   24901   24899   24949   24902   24905   24908
   24902   24905   24907   24902   24905   24906   24903   24902   24905
   24903   24902   24904   24904   24902   24905   24905   24908   24911
   24905   24908   24910   24905   24908   24909   24906   24905   24908
   24906   24905   24907   24907   24905   24908   24908   24911   24914
   24908   24911   24913   24908   24911   24912   24909   24908   24911
   24909   24908   24910   24910   24908   24911   24911   24914   24917
   24911   24914   24916   24911   24914   24915   24912   24911   24914
   24912   24911   24913   24913   24911   24914   24914   24917   24920
   24914   24917   24919   24914   24917   24918   24915   24914   24917
   24915   24914   24916   24916   24914   24917   24917   24920   24922
   24917   24920   24921   24918   24917   24920   24918   24917   24919
   24919   24917   24920   24920   24922   24924   24920   24922   24923
   24921   24920   24922   24922   24924   24927   24922   24924   24926
   24922   24924   24925   24923   24922   24924   24924   24927   24930
   24924   24927   24929   24924   24927   24928   24925   24924   24927
   24925   24924   24926   24926   24924   24927   24927   24930   24933
   24927   24930   24932   24927   24930   24931   24928   24927   24930
   24928   24927   24929   24929   24927   24930   24930   24933   24936
   24930   24933   24935   24930   24933   24934   24931   24930   24933
   24931   24930   24932   24932   24930   24933   24933   24936   24939
   24933   24936   24938   24933   24936   24937   24934   24933   24936
   24934   24933   24935   24935   24933   24936   24936   24939   24942
   24936   24939   24941   24936   24939   24940   24937   24936   24939
   24937   24936   24938   24938   24936   24939   24939   24942   24945
   24939   24942   24944   24939   24942   24943   24940   24939   24942
   24940   24939   24941   24941   24939   24942   24942   24945   24948
   24942   24945   24947   24942   24945   24946   24943   24942   24945
   24943   24942   24944   24944   24942   24945   24946   24945   24948
   24946   24945   24947   24947   24945   24948   24949   24952   24955
   24949   24952   24954   24949   24952   24953   24950   24949   24952
   24950   24949   24951   24951   24949   24952   24952   24955   24958
   24952   24955   24957   24952   24955   24956   24953   24952   24955
   24953   24952   24954   24954   24952   24955   24955   24958   24961
   24955   24958   24960   24955   24958   24959   24956   24955   24958
   24956   24955   24957   24957   24955   24958   24958   24961   24964
   24958   24961   24963   24958   24961   24962   24959   24958   24961
   24959   24958   24960   24960   24958   24961   24961   24964   24967
   24961   24964   24966   24961   24964   24965   24962   24961   24964
   24962   24961   24963   24963   24961   24964   24964   24967   24970
   24964   24967   24969   24964   24967   24968   24965   24964   24967
   24965   24964   24966   24966   24964   24967   24967   24970   24973
   24967   24970   24972   24967   24970   24971   24968   24967   24970
   24968   24967   24969   24969   24967   24970   24970   24973   24976
   24970   24973   24975   24970   24973   24974   24971   24970   24973
   24971   24970   24972   24972   24970   24973   24973   24976   24979
   24973   24976   24978   24973   24976   24977   24974   24973   24976
   24974   24973   24975   24975   24973   24976   24976   24979   24982
   24976   24979   24981   24976   24979   24980   24977   24976   24979
   24977   24976   24978   24978   24976   24979   24979   24982   24985
   24979   24982   24984   24979   24982   24983   24980   24979   24982
   24980   24979   24981   24981   24979   24982   24982   24985   24988
   24982   24985   24987   24982   24985   24986   24983   24982   24985
   24983   24982   24984   24984   24982   24985   24985   24988   24991
   24985   24988   24990   24985   24988   24989   24986   24985   24988
   24986   24985   24987   24987   24985   24988   24989   24988   24991
   24989   24988   24990   24990   24988   24991   24992   24996   24999
   24992   24996   24998   24992   24996   24997   24993   24992   24996
   24993   24992   24995   24993   24992   24994   24994   24992   24996
   24994   24992   24995   24995   24992   24996   24996   24999   25006
   24996   24999   25001   24996   24999   25000   24997   24996   24999
   24997   24996   24998   24998   24996   24999   24999   25006   25002
   25000   24999   25006   25000   24999   25001   25001   24999   25006
   25002   25005   25007   25003   25002   25004   25004   25002   25005
   25003   25002   25005   25004   25002   25006   25003   25002   25006
   25005   25002   25006   25007   25010   25012   25007   25010   25018
   25007   25010   25011   25005   25007   25008   25008   25007   25010
   25008   25007   25009   25005   25007   25009   25009   25007   25010
   25010   25018   25021   25010   25018   25020   25010   25018   25019
   25010   25012   25013   25005   25007   25010   25011   25010   25012
   25011   25010   25018   25012   25013   25014   25012   25013   25015
   25013   25015   25027   25013   25015   25017   25013   25015   25016
   25015   25027   25030   25015   25027   25029   25015   25027   25028
   25014   25013   25015   25016   25015   25027   25016   25015   25017
   25017   25015   25027   25018   25021   25022   25012   25010   25018
   25019   25018   25021   25019   25018   25020   25020   25018   25021
   25021   25022   25023   25021   25022   25024   25022   25024   25074
   25022   25024   25026   25022   25024   25025   25024   25074   25077
   25024   25074   25076   25024   25074   25075   25023   25022   25024
   25025   25024   25074   25025   25024   25026   25026   25024   25074
   25027   25030   25033   25027   25030   25032   25027   25030   25031
   25028   25027   25030   25028   25027   25029   25029   25027   25030
   25030   25033   25036   25030   25033   25035   25030   25033   25034
   25031   25030   25033   25031   25030   25032   25032   25030   25033
   25033   25036   25039   25033   25036   25038   25033   25036   25037
   25034   25033   25036   25034   25033   25035   25035   25033   25036
   25036   25039   25042   25036   25039   25041   25036   25039   25040
   25037   25036   25039   25037   25036   25038   25038   25036   25039
   25039   25042   25045   25039   25042   25044   25039   25042   25043
   25040   25039   25042   25040   25039   25041   25041   25039   25042
   25042   25045   25047   25042   25045   25046   25043   25042   25045
   25043   25042   25044   25044   25042   25045   25045   25047   25049
   25045   25047   25048   25046   25045   25047   25047   25049   25052
   25047   25049   25051   25047   25049   25050   25048   25047   25049
   25049   25052   25055   25049   25052   25054   25049   25052   25053
   25050   25049   25052   25050   25049   25051   25051   25049   25052
   25052   25055   25058   25052   25055   25057   25052   25055   25056
   25053   25052   25055   25053   25052   25054   25054   25052   25055
   25055   25058   25061   25055   25058   25060   25055   25058   25059
   25056   25055   25058   25056   25055   25057   25057   25055   25058
   25058   25061   25064   25058   25061   25063   25058   25061   25062
   25059   25058   25061   25059   25058   25060   25060   25058   25061
   25061   25064   25067   25061   25064   25066   25061   25064   25065
   25062   25061   25064   25062   25061   25063   25063   25061   25064
   25064   25067   25070   25064   25067   25069   25064   25067   25068
   25065   25064   25067   25065   25064   25066   25066   25064   25067
   25067   25070   25073   25067   25070   25072   25067   25070   25071
   25068   25067   25070   25068   25067   25069   25069   25067   25070
   25071   25070   25073   25071   25070   25072   25072   25070   25073
   25074   25077   25080   25074   25077   25079   25074   25077   25078
   25075   25074   25077   25075   25074   25076   25076   25074   25077
   25077   25080   25083   25077   25080   25082   25077   25080   25081
   25078   25077   25080   25078   25077   25079   25079   25077   25080
   25080   25083   25086   25080   25083   25085   25080   25083   25084
   25081   25080   25083   25081   25080   25082   25082   25080   25083
   25083   25086   25089   25083   25086   25088   25083   25086   25087
   25084   25083   25086   25084   25083   25085   25085   25083   25086
   25086   25089   25092   25086   25089   25091   25086   25089   25090
   25087   25086   25089   25087   25086   25088   25088   25086   25089
   25089   25092   25095   25089   25092   25094   25089   25092   25093
   25090   25089   25092   25090   25089   25091   25091   25089   25092
   25092   25095   25098   25092   25095   25097   25092   25095   25096
   25093   25092   25095   25093   25092   25094   25094   25092   25095
   25095   25098   25101   25095   25098   25100   25095   25098   25099
   25096   25095   25098   25096   25095   25097   25097   25095   25098
   25098   25101   25104   25098   25101   25103   25098   25101   25102
   25099   25098   25101   25099   25098   25100   25100   25098   25101
   25101   25104   25107   25101   25104   25106   25101   25104   25105
   25102   25101   25104   25102   25101   25103   25103   25101   25104
   25104   25107   25110   25104   25107   25109   25104   25107   25108
   25105   25104   25107   25105   25104   25106   25106   25104   25107
   25107   25110   25113   25107   25110   25112   25107   25110   25111
   25108   25107   25110   25108   25107   25109   25109   25107   25110
   25110   25113   25116   25110   25113   25115   25110   25113   25114
   25111   25110   25113   25111   25110   25112   25112   25110   25113
   25114   25113   25116   25114   25113   25115   25115   25113   25116
   25117   25121   25124   25117   25121   25123   25117   25121   25122
   25118   25117   25121   25118   25117   25120   25118   25117   25119
   25119   25117   25121   25119   25117   25120   25120   25117   25121
   25121   25124   25131   25121   25124   25126   25121   25124   25125
   25122   25121   25124   25122   25121   25123   25123   25121   25124
   25124   25131   25127   25125   25124   25131   25125   25124   25126
   25126   25124   25131   25127   25130   25132   25128   25127   25129
   25129   25127   25130   25128   25127   25130   25129   25127   25131
   25128   25127   25131   25130   25127   25131   25132   25135   25137
   25132   25135   25143   25132   25135   25136   25130   25132   25133
   25133   25132   25135   25133   25132   25134   25130   25132   25134
   25134   25132   25135   25135   25143   25146   25135   25143   25145
   25135   25143   25144   25135   25137   25138   25130   25132   25135
   25136   25135   25137   25136   25135   25143   25137   25138   25139
   25137   25138   25140   25138   25140   25152   25138   25140   25142
   25138   25140   25141   25140   25152   25155   25140   25152   25154
   25140   25152   25153   25139   25138   25140   25141   25140   25152
   25141   25140   25142   25142   25140   25152   25143   25146   25147
   25137   25135   25143   25144   25143   25146   25144   25143   25145
   25145   25143   25146   25146   25147   25148   25146   25147   25149
   25147   25149   25199   25147   25149   25151   25147   25149   25150
   25149   25199   25202   25149   25199   25201   25149   25199   25200
   25148   25147   25149   25150   25149   25199   25150   25149   25151
   25151   25149   25199   25152   25155   25158   25152   25155   25157
   25152   25155   25156   25153   25152   25155   25153   25152   25154
   25154   25152   25155   25155   25158   25161   25155   25158   25160
   25155   25158   25159   25156   25155   25158   25156   25155   25157
   25157   25155   25158   25158   25161   25164   25158   25161   25163
   25158   25161   25162   25159   25158   25161   25159   25158   25160
   25160   25158   25161   25161   25164   25167   25161   25164   25166
   25161   25164   25165   25162   25161   25164   25162   25161   25163
   25163   25161   25164   25164   25167   25170   25164   25167   25169
   25164   25167   25168   25165   25164   25167   25165   25164   25166
   25166   25164   25167   25167   25170   25172   25167   25170   25171
   25168   25167   25170   25168   25167   25169   25169   25167   25170
   25170   25172   25174   25170   25172   25173   25171   25170   25172
   25172   25174   25177   25172   25174   25176   25172   25174   25175
   25173   25172   25174   25174   25177   25180   25174   25177   25179
   25174   25177   25178   25175   25174   25177   25175   25174   25176
   25176   25174   25177   25177   25180   25183   25177   25180   25182
   25177   25180   25181   25178   25177   25180   25178   25177   25179
   25179   25177   25180   25180   25183   25186   25180   25183   25185
   25180   25183   25184   25181   25180   25183   25181   25180   25182
   25182   25180   25183   25183   25186   25189   25183   25186   25188
   25183   25186   25187   25184   25183   25186   25184   25183   25185
   25185   25183   25186   25186   25189   25192   25186   25189   25191
   25186   25189   25190   25187   25186   25189   25187   25186   25188
   25188   25186   25189   25189   25192   25195   25189   25192   25194
   25189   25192   25193   25190   25189   25192   25190   25189   25191
   25191   25189   25192   25192   25195   25198   25192   25195   25197
   25192   25195   25196   25193   25192   25195   25193   25192   25194
   25194   25192   25195   25196   25195   25198   25196   25195   25197
   25197   25195   25198   25199   25202   25205   25199   25202   25204
   25199   25202   25203   25200   25199   25202   25200   25199   25201
   25201   25199   25202   25202   25205   25208   25202   25205   25207
   25202   25205   25206   25203   25202   25205   25203   25202   25204
   25204   25202   25205   25205   25208   25211   25205   25208   25210
   25205   25208   25209   25206   25205   25208   25206   25205   25207
   25207   25205   25208   25208   25211   25214   25208   25211   25213
   25208   25211   25212   25209   25208   25211   25209   25208   25210
   25210   25208   25211   25211   25214   25217   25211   25214   25216
   25211   25214   25215   25212   25211   25214   25212   25211   25213
   25213   25211   25214   25214   25217   25220   25214   25217   25219
   25214   25217   25218   25215   25214   25217   25215   25214   25216
   25216   25214   25217   25217   25220   25223   25217   25220   25222
   25217   25220   25221   25218   25217   25220   25218   25217   25219
   25219   25217   25220   25220   25223   25226   25220   25223   25225
   25220   25223   25224   25221   25220   25223   25221   25220   25222
   25222   25220   25223   25223   25226   25229   25223   25226   25228
   25223   25226   25227   25224   25223   25226   25224   25223   25225
   25225   25223   25226   25226   25229   25232   25226   25229   25231
   25226   25229   25230   25227   25226   25229   25227   25226   25228
   25228   25226   25229   25229   25232   25235   25229   25232   25234
   25229   25232   25233   25230   25229   25232   25230   25229   25231
   25231   25229   25232   25232   25235   25238   25232   25235   25237
   25232   25235   25236   25233   25232   25235   25233   25232   25234
   25234   25232   25235   25235   25238   25241   25235   25238   25240
   25235   25238   25239   25236   25235   25238   25236   25235   25237
   25237   25235   25238   25239   25238   25241   25239   25238   25240
   25240   25238   25241   25242   25246   25249   25242   25246   25248
   25242   25246   25247   25243   25242   25246   25243   25242   25245
   25243   25242   25244   25244   25242   25246   25244   25242   25245
   25245   25242   25246   25246   25249   25256   25246   25249   25251
   25246   25249   25250   25247   25246   25249   25247   25246   25248
   25248   25246   25249   25249   25256   25252   25250   25249   25256
   25250   25249   25251   25251   25249   25256   25252   25255   25257
   25253   25252   25254   25254   25252   25255   25253   25252   25255
   25254   25252   25256   25253   25252   25256   25255   25252   25256
   25257   25260   25262   25257   25260   25268   25257   25260   25261
   25255   25257   25258   25258   25257   25260   25258   25257   25259
   25255   25257   25259   25259   25257   25260   25260   25268   25271
   25260   25268   25270   25260   25268   25269   25260   25262   25263
   25255   25257   25260   25261   25260   25262   25261   25260   25268
   25262   25263   25264   25262   25263   25265   25263   25265   25277
   25263   25265   25267   25263   25265   25266   25265   25277   25280
   25265   25277   25279   25265   25277   25278   25264   25263   25265
   25266   25265   25277   25266   25265   25267   25267   25265   25277
   25268   25271   25272   25262   25260   25268   25269   25268   25271
   25269   25268   25270   25270   25268   25271   25271   25272   25273
   25271   25272   25274   25272   25274   25324   25272   25274   25276
   25272   25274   25275   25274   25324   25327   25274   25324   25326
   25274   25324   25325   25273   25272   25274   25275   25274   25324
   25275   25274   25276   25276   25274   25324   25277   25280   25283
   25277   25280   25282   25277   25280   25281   25278   25277   25280
   25278   25277   25279   25279   25277   25280   25280   25283   25286
   25280   25283   25285   25280   25283   25284   25281   25280   25283
   25281   25280   25282   25282   25280   25283   25283   25286   25289
   25283   25286   25288   25283   25286   25287   25284   25283   25286
   25284   25283   25285   25285   25283   25286   25286   25289   25292
   25286   25289   25291   25286   25289   25290   25287   25286   25289
   25287   25286   25288   25288   25286   25289   25289   25292   25295
   25289   25292   25294   25289   25292   25293   25290   25289   25292
   25290   25289   25291   25291   25289   25292   25292   25295   25297
   25292   25295   25296   25293   25292   25295   25293   25292   25294
   25294   25292   25295   25295   25297   25299   25295   25297   25298
   25296   25295   25297   25297   25299   25302   25297   25299   25301
   25297   25299   25300   25298   25297   25299   25299   25302   25305
   25299   25302   25304   25299   25302   25303   25300   25299   25302
   25300   25299   25301   25301   25299   25302   25302   25305   25308
   25302   25305   25307   25302   25305   25306   25303   25302   25305
   25303   25302   25304   25304   25302   25305   25305   25308   25311
   25305   25308   25310   25305   25308   25309   25306   25305   25308
   25306   25305   25307   25307   25305   25308   25308   25311   25314
   25308   25311   25313   25308   25311   25312   25309   25308   25311
   25309   25308   25310   25310   25308   25311   25311   25314   25317
   25311   25314   25316   25311   25314   25315   25312   25311   25314
   25312   25311   25313   25313   25311   25314   25314   25317   25320
   25314   25317   25319   25314   25317   25318   25315   25314   25317
   25315   25314   25316   25316   25314   25317   25317   25320   25323
   25317   25320   25322   25317   25320   25321   25318   25317   25320
   25318   25317   25319   25319   25317   25320   25321   25320   25323
   25321   25320   25322   25322   25320   25323   25324   25327   25330
   25324   25327   25329   25324   25327   25328   25325   25324   25327
   25325   25324   25326   25326   25324   25327   25327   25330   25333
   25327   25330   25332   25327   25330   25331   25328   25327   25330
   25328   25327   25329   25329   25327   25330   25330   25333   25336
   25330   25333   25335   25330   25333   25334   25331   25330   25333
   25331   25330   25332   25332   25330   25333   25333   25336   25339
   25333   25336   25338   25333   25336   25337   25334   25333   25336
   25334   25333   25335   25335   25333   25336   25336   25339   25342
   25336   25339   25341   25336   25339   25340   25337   25336   25339
   25337   25336   25338   25338   25336   25339   25339   25342   25345
   25339   25342   25344   25339   25342   25343   25340   25339   25342
   25340   25339   25341   25341   25339   25342   25342   25345   25348
   25342   25345   25347   25342   25345   25346   25343   25342   25345
   25343   25342   25344   25344   25342   25345   25345   25348   25351
   25345   25348   25350   25345   25348   25349   25346   25345   25348
   25346   25345   25347   25347   25345   25348   25348   25351   25354
   25348   25351   25353   25348   25351   25352   25349   25348   25351
   25349   25348   25350   25350   25348   25351   25351   25354   25357
   25351   25354   25356   25351   25354   25355   25352   25351   25354
   25352   25351   25353   25353   25351   25354   25354   25357   25360
   25354   25357   25359   25354   25357   25358   25355   25354   25357
   25355   25354   25356   25356   25354   25357   25357   25360   25363
   25357   25360   25362   25357   25360   25361   25358   25357   25360
   25358   25357   25359   25359   25357   25360   25360   25363   25366
   25360   25363   25365   25360   25363   25364   25361   25360   25363
   25361   25360   25362   25362   25360   25363   25364   25363   25366
   25364   25363   25365   25365   25363   25366   25367   25376   25379
   25367   25376   25378   25367   25376   25377   25367   25372   25375
   25367   25372   25374   25367   25372   25373   25367   25368   25371
   25367   25368   25370   25367   25368   25369   25369   25368   25371
   25369   25368   25370   25370   25368   25371   25368   25367   25372
   25373   25372   25375   25373   25372   25374   25374   25372   25375
   25368   25367   25376   25372   25367   25376   25377   25376   25379
   25377   25376   25378   25378   25376   25379   25368   25367   25380
   25372   25367   25380   25376   25367   25380   25367   25380   25381
   25381   25380   25382   25367   25380   25382   25367   25380   25383
   25382   25380   25383   25381   25380   25383   25380   25383   25384
   25384   25383   25385   25380   25383   25385   25383   25390   25386
   25387   25386   25388   25388   25386   25389   25387   25386   25389
   25389   25386   25390   25388   25386   25390   25387   25386   25390
   25380   25383   25390   25385   25383   25390   25384   25383   25390
   25391   25396   25394   25386   25389   25391   25389   25391   25392
   25392   25391   25393   25389   25391   25393   25394   25446   25447
   25394   25446   25448   25395   25394   25446   25396   25394   25446
   25395   25394   25396   25389   25391   25396   25393   25391   25396
   25392   25391   25396   25394   25396   25397   25391   25396   25397
   25398   25402   25404   25398   25400   25401   25394   25396   25398
   25391   25396   25398   25397   25396   25398   25396   25398   25399
   25399   25398   25400   25396   25398   25400   25396   25398   25402
   25400   25398   25402   25399   25398   25402   25403   25402   25404
   25398   25402   25403   25402   25404   25405   25402   25404   25406
   25405   25404   25406   25404   25406   25407   25407   25406   25408
   25404   25406   25408   25404   25406   25409   25408   25406   25409
   25407   25406   25409   25406   25409   25410   25410   25409   25411
   25406   25409   25411   25406   25409   25412   25411   25409   25412
   25410   25409   25412   25409   25412   25413   25413   25412   25414
   25409   25412   25414   25409   25412   25415   25414   25412   25415
   25413   25412   25415   25412   25415   25416   25416   25415   25417
   25412   25415   25417   25412   25415   25418   25417   25415   25418
   25416   25415   25418   25415   25418   25419   25419   25418   25420
   25415   25418   25420   25415   25418   25421   25420   25418   25421
   25419   25418   25421   25418   25421   25422   25422   25421   25423
   25418   25421   25423   25418   25421   25424   25423   25421   25424
   25422   25421   25424   25421   25424   25425   25425   25424   25426
   25421   25424   25426   25421   25424   25427   25426   25424   25427
   25425   25424   25427   25424   25427   25428   25428   25427   25429
   25424   25427   25429   25424   25427   25430   25429   25427   25430
   25428   25427   25430   25427   25430   25431   25431   25430   25432
   25427   25430   25432   25427   25430   25433   25432   25430   25433
   25431   25430   25433   25430   25433   25434   25434   25433   25435
   25430   25433   25435   25430   25433   25436   25435   25433   25436
   25434   25433   25436   25433   25436   25437   25437   25436   25438
   25433   25436   25438   25433   25436   25439   25438   25436   25439
   25437   25436   25439   25436   25439   25440   25440   25439   25441
   25436   25439   25441   25436   25439   25442   25441   25439   25442
   25440   25439   25442   25439   25442   25443   25443   25442   25445
   25443   25442   25444   25439   25442   25444   25444   25442   25445
   25439   25442   25445   25446   25448   25451   25446   25448   25450
   25446   25448   25449   25448   25451   25454   25448   25451   25453
   25448   25451   25452   25447   25446   25448   25449   25448   25451
   25449   25448   25450   25450   25448   25451   25451   25454   25457
   25451   25454   25456   25451   25454   25455   25452   25451   25454
   25452   25451   25453   25453   25451   25454   25454   25457   25460
   25454   25457   25459   25454   25457   25458   25455   25454   25457
   25455   25454   25456   25456   25454   25457   25457   25460   25463
   25457   25460   25462   25457   25460   25461   25458   25457   25460
   25458   25457   25459   25459   25457   25460   25460   25463   25466
   25460   25463   25465   25460   25463   25464   25461   25460   25463
   25461   25460   25462   25462   25460   25463   25463   25466   25469
   25463   25466   25468   25463   25466   25467   25464   25463   25466
   25464   25463   25465   25465   25463   25466   25466   25469   25472
   25466   25469   25471   25466   25469   25470   25467   25466   25469
   25467   25466   25468   25468   25466   25469   25469   25472   25475
   25469   25472   25474   25469   25472   25473   25470   25469   25472
   25470   25469   25471   25471   25469   25472   25472   25475   25478
   25472   25475   25477   25472   25475   25476   25473   25472   25475
   25473   25472   25474   25474   25472   25475   25475   25478   25481
   25475   25478   25480   25475   25478   25479   25476   25475   25478
   25476   25475   25477   25477   25475   25478   25478   25481   25484
   25478   25481   25483   25478   25481   25482   25479   25478   25481
   25479   25478   25480   25480   25478   25481   25481   25484   25487
   25481   25484   25486   25481   25484   25485   25482   25481   25484
   25482   25481   25483   25483   25481   25484   25484   25487   25490
   25484   25487   25489   25484   25487   25488   25485   25484   25487
   25485   25484   25486   25486   25484   25487   25487   25490   25493
   25487   25490   25492   25487   25490   25491   25488   25487   25490
   25488   25487   25489   25489   25487   25490   25491   25490   25493
   25491   25490   25492   25492   25490   25493   25494   25506   25509
   25494   25506   25508   25494   25506   25507   25494   25502   25505
   25494   25502   25504   25494   25502   25503   25494   25498   25501
   25494   25498   25500   25494   25498   25499   25494   25495   25510
   25494   25495   25497   25494   25495   25496   25495   25510   25516
   25495   25510   25512   25495   25510   25511   25496   25495   25510
   25496   25495   25497   25497   25495   25510   25495   25494   25498
   25498   25494   25506   25498   25494   25502   25499   25498   25501
   25499   25498   25500   25500   25498   25501   25495   25494   25502
   25502   25494   25506   25503   25502   25505   25503   25502   25504
   25504   25502   25505   25495   25494   25506   25507   25506   25509
   25507   25506   25508   25508   25506   25509   25510   25516   25513
   25511   25510   25516   25511   25510   25512   25512   25510   25516
   25514   25513   25515   25515   25513   25516   25514   25513   25516
   25516   25513   25517   25517   25518   25521   25517   25518   25520
   25517   25518   25519   25515   25513   25517   25514   25513   25517
   25518   25521   25523   25518   25521   25529   25518   25521   25522
   25513   25517   25518   25519   25518   25521   25519   25518   25520
   25520   25518   25521   25521   25529   25532   25521   25529   25531
   25521   25529   25530   25521   25523   25524   25522   25521   25523
   25522   25521   25529   25523   25524   25525   25523   25524   25526
   25524   25526   25538   25524   25526   25528   25524   25526   25527
   25526   25538   25541   25526   25538   25540   25526   25538   25539
   25525   25524   25526   25527   25526   25538   25527   25526   25528
   25528   25526   25538   25529   25532   25533   25523   25521   25529
   25530   25529   25532   25530   25529   25531   25531   25529   25532
   25532   25533   25534   25532   25533   25535   25533   25535   25585
   25533   25535   25537   25533   25535   25536   25535   25585   25588
   25535   25585   25587   25535   25585   25586   25534   25533   25535
   25536   25535   25585   25536   25535   25537   25537   25535   25585
   25538   25541   25544   25538   25541   25543   25538   25541   25542
   25539   25538   25541   25539   25538   25540   25540   25538   25541
   25541   25544   25547   25541   25544   25546   25541   25544   25545
   25542   25541   25544   25542   25541   25543   25543   25541   25544
   25544   25547   25550   25544   25547   25549   25544   25547   25548
   25545   25544   25547   25545   25544   25546   25546   25544   25547
   25547   25550   25553   25547   25550   25552   25547   25550   25551
   25548   25547   25550   25548   25547   25549   25549   25547   25550
   25550   25553   25556   25550   25553   25555   25550   25553   25554
   25551   25550   25553   25551   25550   25552   25552   25550   25553
   25553   25556   25558   25553   25556   25557   25554   25553   25556
   25554   25553   25555   25555   25553   25556   25556   25558   25560
   25556   25558   25559   25557   25556   25558   25558   25560   25563
   25558   25560   25562   25558   25560   25561   25559   25558   25560
   25560   25563   25566   25560   25563   25565   25560   25563   25564
   25561   25560   25563   25561   25560   25562   25562   25560   25563
   25563   25566   25569   25563   25566   25568   25563   25566   25567
   25564   25563   25566   25564   25563   25565   25565   25563   25566
   25566   25569   25572   25566   25569   25571   25566   25569   25570
   25567   25566   25569   25567   25566   25568   25568   25566   25569
   25569   25572   25575   25569   25572   25574   25569   25572   25573
   25570   25569   25572   25570   25569   25571   25571   25569   25572
   25572   25575   25578   25572   25575   25577   25572   25575   25576
   25573   25572   25575   25573   25572   25574   25574   25572   25575
   25575   25578   25581   25575   25578   25580   25575   25578   25579
   25576   25575   25578   25576   25575   25577   25577   25575   25578
   25578   25581   25584   25578   25581   25583   25578   25581   25582
   25579   25578   25581   25579   25578   25580   25580   25578   25581
   25582   25581   25584   25582   25581   25583   25583   25581   25584
   25585   25588   25591   25585   25588   25590   25585   25588   25589
   25586   25585   25588   25586   25585   25587   25587   25585   25588
   25588   25591   25594   25588   25591   25593   25588   25591   25592
   25589   25588   25591   25589   25588   25590   25590   25588   25591
   25591   25594   25597   25591   25594   25596   25591   25594   25595
   25592   25591   25594   25592   25591   25593   25593   25591   25594
   25594   25597   25600   25594   25597   25599   25594   25597   25598
   25595   25594   25597   25595   25594   25596   25596   25594   25597
   25597   25600   25603   25597   25600   25602   25597   25600   25601
   25598   25597   25600   25598   25597   25599   25599   25597   25600
   25600   25603   25606   25600   25603   25605   25600   25603   25604
   25601   25600   25603   25601   25600   25602   25602   25600   25603
   25603   25606   25609   25603   25606   25608   25603   25606   25607
   25604   25603   25606   25604   25603   25605   25605   25603   25606
   25606   25609   25612   25606   25609   25611   25606   25609   25610
   25607   25606   25609   25607   25606   25608   25608   25606   25609
   25609   25612   25615   25609   25612   25614   25609   25612   25613
   25610   25609   25612   25610   25609   25611   25611   25609   25612
   25612   25615   25618   25612   25615   25617   25612   25615   25616
   25613   25612   25615   25613   25612   25614   25614   25612   25615
   25615   25618   25621   25615   25618   25620   25615   25618   25619
   25616   25615   25618   25616   25615   25617   25617   25615   25618
   25618   25621   25624   25618   25621   25623   25618   25621   25622
   25619   25618   25621   25619   25618   25620   25620   25618   25621
   25621   25624   25627   25621   25624   25626   25621   25624   25625
   25622   25621   25624   25622   25621   25623   25623   25621   25624
   25625   25624   25627   25625   25624   25626   25626   25624   25627
   25628   25632   25635   25628   25632   25634   25628   25632   25633
   25629   25628   25632   25629   25628   25631   25629   25628   25630
   25630   25628   25632   25630   25628   25631   25631   25628   25632
   25632   25635   25642   25632   25635   25637   25632   25635   25636
   25633   25632   25635   25633   25632   25634   25634   25632   25635
   25635   25642   25638   25636   25635   25642   25636   25635   25637
   25637   25635   25642   25638   25641   25643   25639   25638   25640
   25640   25638   25641   25639   25638   25641   25640   25638   25642
   25639   25638   25642   25641   25638   25642   25643   25646   25648
   25643   25646   25654   25643   25646   25647   25641   25643   25644
   25644   25643   25646   25644   25643   25645   25641   25643   25645
   25645   25643   25646   25646   25654   25657   25646   25654   25656
   25646   25654   25655   25646   25648   25649   25641   25643   25646
   25647   25646   25648   25647   25646   25654   25648   25649   25650
   25648   25649   25651   25649   25651   25663   25649   25651   25653
   25649   25651   25652   25651   25663   25666   25651   25663   25665
   25651   25663   25664   25650   25649   25651   25652   25651   25663
   25652   25651   25653   25653   25651   25663   25654   25657   25658
   25648   25646   25654   25655   25654   25657   25655   25654   25656
   25656   25654   25657   25657   25658   25659   25657   25658   25660
   25658   25660   25710   25658   25660   25662   25658   25660   25661
   25660   25710   25713   25660   25710   25712   25660   25710   25711
   25659   25658   25660   25661   25660   25710   25661   25660   25662
   25662   25660   25710   25663   25666   25669   25663   25666   25668
   25663   25666   25667   25664   25663   25666   25664   25663   25665
   25665   25663   25666   25666   25669   25672   25666   25669   25671
   25666   25669   25670   25667   25666   25669   25667   25666   25668
   25668   25666   25669   25669   25672   25675   25669   25672   25674
   25669   25672   25673   25670   25669   25672   25670   25669   25671
   25671   25669   25672   25672   25675   25678   25672   25675   25677
   25672   25675   25676   25673   25672   25675   25673   25672   25674
   25674   25672   25675   25675   25678   25681   25675   25678   25680
   25675   25678   25679   25676   25675   25678   25676   25675   25677
   25677   25675   25678   25678   25681   25683   25678   25681   25682
   25679   25678   25681   25679   25678   25680   25680   25678   25681
   25681   25683   25685   25681   25683   25684   25682   25681   25683
   25683   25685   25688   25683   25685   25687   25683   25685   25686
   25684   25683   25685   25685   25688   25691   25685   25688   25690
   25685   25688   25689   25686   25685   25688   25686   25685   25687
   25687   25685   25688   25688   25691   25694   25688   25691   25693
   25688   25691   25692   25689   25688   25691   25689   25688   25690
   25690   25688   25691   25691   25694   25697   25691   25694   25696
   25691   25694   25695   25692   25691   25694   25692   25691   25693
   25693   25691   25694   25694   25697   25700   25694   25697   25699
   25694   25697   25698   25695   25694   25697   25695   25694   25696
   25696   25694   25697   25697   25700   25703   25697   25700   25702
   25697   25700   25701   25698   25697   25700   25698   25697   25699
   25699   25697   25700   25700   25703   25706   25700   25703   25705
   25700   25703   25704   25701   25700   25703   25701   25700   25702
   25702   25700   25703   25703   25706   25709   25703   25706   25708
   25703   25706   25707   25704   25703   25706   25704   25703   25705
   25705   25703   25706   25707   25706   25709   25707   25706   25708
   25708   25706   25709   25710   25713   25716   25710   25713   25715
   25710   25713   25714   25711   25710   25713   25711   25710   25712
   25712   25710   25713   25713   25716   25719   25713   25716   25718
   25713   25716   25717   25714   25713   25716   25714   25713   25715
   25715   25713   25716   25716   25719   25722   25716   25719   25721
   25716   25719   25720   25717   25716   25719   25717   25716   25718
   25718   25716   25719   25719   25722   25725   25719   25722   25724
   25719   25722   25723   25720   25719   25722   25720   25719   25721
   25721   25719   25722   25722   25725   25728   25722   25725   25727
   25722   25725   25726   25723   25722   25725   25723   25722   25724
   25724   25722   25725   25725   25728   25731   25725   25728   25730
   25725   25728   25729   25726   25725   25728   25726   25725   25727
   25727   25725   25728   25728   25731   25734   25728   25731   25733
   25728   25731   25732   25729   25728   25731   25729   25728   25730
   25730   25728   25731   25731   25734   25737   25731   25734   25736
   25731   25734   25735   25732   25731   25734   25732   25731   25733
   25733   25731   25734   25734   25737   25740   25734   25737   25739
   25734   25737   25738   25735   25734   25737   25735   25734   25736
   25736   25734   25737   25737   25740   25743   25737   25740   25742
   25737   25740   25741   25738   25737   25740   25738   25737   25739
   25739   25737   25740   25740   25743   25746   25740   25743   25745
   25740   25743   25744   25741   25740   25743   25741   25740   25742
   25742   25740   25743   25743   25746   25749   25743   25746   25748
   25743   25746   25747   25744   25743   25746   25744   25743   25745
   25745   25743   25746   25746   25749   25752   25746   25749   25751
   25746   25749   25750   25747   25746   25749   25747   25746   25748
   25748   25746   25749   25750   25749   25752   25750   25749   25751
   25751   25749   25752   25753   25765   25768   25753   25765   25767
   25753   25765   25766   25753   25761   25764   25753   25761   25763
   25753   25761   25762   25753   25757   25760   25753   25757   25759
   25753   25757   25758   25753   25754   25769   25753   25754   25756
   25753   25754   25755   25754   25769   25775   25754   25769   25771
   25754   25769   25770   25755   25754   25769   25755   25754   25756
   25756   25754   25769   25754   25753   25757   25757   25753   25765
   25757   25753   25761   25758   25757   25760   25758   25757   25759
   25759   25757   25760   25754   25753   25761   25761   25753   25765
   25762   25761   25764   25762   25761   25763   25763   25761   25764
   25754   25753   25765   25766   25765   25768   25766   25765   25767
   25767   25765   25768   25769   25775   25772   25770   25769   25775
   25770   25769   25771   25771   25769   25775   25773   25772   25774
   25774   25772   25775   25773   25772   25775   25775   25772   25776
   25776   25777   25780   25776   25777   25779   25776   25777   25778
   25774   25772   25776   25773   25772   25776   25777   25780   25782
   25777   25780   25788   25777   25780   25781   25772   25776   25777
   25778   25777   25780   25778   25777   25779   25779   25777   25780
   25780   25788   25791   25780   25788   25790   25780   25788   25789
   25780   25782   25783   25781   25780   25782   25781   25780   25788
   25782   25783   25784   25782   25783   25785   25783   25785   25797
   25783   25785   25787   25783   25785   25786   25785   25797   25800
   25785   25797   25799   25785   25797   25798   25784   25783   25785
   25786   25785   25797   25786   25785   25787   25787   25785   25797
   25788   25791   25792   25782   25780   25788   25789   25788   25791
   25789   25788   25790   25790   25788   25791   25791   25792   25793
   25791   25792   25794   25792   25794   25844   25792   25794   25796
   25792   25794   25795   25794   25844   25847   25794   25844   25846
   25794   25844   25845   25793   25792   25794   25795   25794   25844
   25795   25794   25796   25796   25794   25844   25797   25800   25803
   25797   25800   25802   25797   25800   25801   25798   25797   25800
   25798   25797   25799   25799   25797   25800   25800   25803   25806
   25800   25803   25805   25800   25803   25804   25801   25800   25803
   25801   25800   25802   25802   25800   25803   25803   25806   25809
   25803   25806   25808   25803   25806   25807   25804   25803   25806
   25804   25803   25805   25805   25803   25806   25806   25809   25812
   25806   25809   25811   25806   25809   25810   25807   25806   25809
   25807   25806   25808   25808   25806   25809   25809   25812   25815
   25809   25812   25814   25809   25812   25813   25810   25809   25812
   25810   25809   25811   25811   25809   25812   25812   25815   25817
   25812   25815   25816   25813   25812   25815   25813   25812   25814
   25814   25812   25815   25815   25817   25819   25815   25817   25818
   25816   25815   25817   25817   25819   25822   25817   25819   25821
   25817   25819   25820   25818   25817   25819   25819   25822   25825
   25819   25822   25824   25819   25822   25823   25820   25819   25822
   25820   25819   25821   25821   25819   25822   25822   25825   25828
   25822   25825   25827   25822   25825   25826   25823   25822   25825
   25823   25822   25824   25824   25822   25825   25825   25828   25831
   25825   25828   25830   25825   25828   25829   25826   25825   25828
   25826   25825   25827   25827   25825   25828   25828   25831   25834
   25828   25831   25833   25828   25831   25832   25829   25828   25831
   25829   25828   25830   25830   25828   25831   25831   25834   25837
   25831   25834   25836   25831   25834   25835   25832   25831   25834
   25832   25831   25833   25833   25831   25834   25834   25837   25840
   25834   25837   25839   25834   25837   25838   25835   25834   25837
   25835   25834   25836   25836   25834   25837   25837   25840   25843
   25837   25840   25842   25837   25840   25841   25838   25837   25840
   25838   25837   25839   25839   25837   25840   25841   25840   25843
   25841   25840   25842   25842   25840   25843   25844   25847   25850
   25844   25847   25849   25844   25847   25848   25845   25844   25847
   25845   25844   25846   25846   25844   25847   25847   25850   25853
   25847   25850   25852   25847   25850   25851   25848   25847   25850
   25848   25847   25849   25849   25847   25850   25850   25853   25856
   25850   25853   25855   25850   25853   25854   25851   25850   25853
   25851   25850   25852   25852   25850   25853   25853   25856   25859
   25853   25856   25858   25853   25856   25857   25854   25853   25856
   25854   25853   25855   25855   25853   25856   25856   25859   25862
   25856   25859   25861   25856   25859   25860   25857   25856   25859
   25857   25856   25858   25858   25856   25859   25859   25862   25865
   25859   25862   25864   25859   25862   25863   25860   25859   25862
   25860   25859   25861   25861   25859   25862   25862   25865   25868
   25862   25865   25867   25862   25865   25866   25863   25862   25865
   25863   25862   25864   25864   25862   25865   25865   25868   25871
   25865   25868   25870   25865   25868   25869   25866   25865   25868
   25866   25865   25867   25867   25865   25868   25868   25871   25874
   25868   25871   25873   25868   25871   25872   25869   25868   25871
   25869   25868   25870   25870   25868   25871   25871   25874   25877
   25871   25874   25876   25871   25874   25875   25872   25871   25874
   25872   25871   25873   25873   25871   25874   25874   25877   25880
   25874   25877   25879   25874   25877   25878   25875   25874   25877
   25875   25874   25876   25876   25874   25877   25877   25880   25883
   25877   25880   25882   25877   25880   25881   25878   25877   25880
   25878   25877   25879   25879   25877   25880   25880   25883   25886
   25880   25883   25885   25880   25883   25884   25881   25880   25883
   25881   25880   25882   25882   25880   25883   25884   25883   25886
   25884   25883   25885   25885   25883   25886   25887   25891   25894
   25887   25891   25893   25887   25891   25892   25888   25887   25891
   25888   25887   25890   25888   25887   25889   25889   25887   25891
   25889   25887   25890   25890   25887   25891   25891   25894   25901
   25891   25894   25896   25891   25894   25895   25892   25891   25894
   25892   25891   25893   25893   25891   25894   25894   25901   25897
   25895   25894   25901   25895   25894   25896   25896   25894   25901
   25897   25900   25902   25898   25897   25899   25899   25897   25900
   25898   25897   25900   25899   25897   25901   25898   25897   25901
   25900   25897   25901   25902   25905   25907   25902   25905   25913
   25902   25905   25906   25900   25902   25903   25903   25902   25905
   25903   25902   25904   25900   25902   25904   25904   25902   25905
   25905   25913   25916   25905   25913   25915   25905   25913   25914
   25905   25907   25908   25900   25902   25905   25906   25905   25907
   25906   25905   25913   25907   25908   25909   25907   25908   25910
   25908   25910   25922   25908   25910   25912   25908   25910   25911
   25910   25922   25925   25910   25922   25924   25910   25922   25923
   25909   25908   25910   25911   25910   25922   25911   25910   25912
   25912   25910   25922   25913   25916   25917   25907   25905   25913
   25914   25913   25916   25914   25913   25915   25915   25913   25916
   25916   25917   25918   25916   25917   25919   25917   25919   25969
   25917   25919   25921   25917   25919   25920   25919   25969   25972
   25919   25969   25971   25919   25969   25970   25918   25917   25919
   25920   25919   25969   25920   25919   25921   25921   25919   25969
   25922   25925   25928   25922   25925   25927   25922   25925   25926
   25923   25922   25925   25923   25922   25924   25924   25922   25925
   25925   25928   25931   25925   25928   25930   25925   25928   25929
   25926   25925   25928   25926   25925   25927   25927   25925   25928
   25928   25931   25934   25928   25931   25933   25928   25931   25932
   25929   25928   25931   25929   25928   25930   25930   25928   25931
   25931   25934   25937   25931   25934   25936   25931   25934   25935
   25932   25931   25934   25932   25931   25933   25933   25931   25934
   25934   25937   25940   25934   25937   25939   25934   25937   25938
   25935   25934   25937   25935   25934   25936   25936   25934   25937
   25937   25940   25942   25937   25940   25941   25938   25937   25940
   25938   25937   25939   25939   25937   25940   25940   25942   25944
   25940   25942   25943   25941   25940   25942   25942   25944   25947
   25942   25944   25946   25942   25944   25945   25943   25942   25944
   25944   25947   25950   25944   25947   25949   25944   25947   25948
   25945   25944   25947   25945   25944   25946   25946   25944   25947
   25947   25950   25953   25947   25950   25952   25947   25950   25951
   25948   25947   25950   25948   25947   25949   25949   25947   25950
   25950   25953   25956   25950   25953   25955   25950   25953   25954
   25951   25950   25953   25951   25950   25952   25952   25950   25953
   25953   25956   25959   25953   25956   25958   25953   25956   25957
   25954   25953   25956   25954   25953   25955   25955   25953   25956
   25956   25959   25962   25956   25959   25961   25956   25959   25960
   25957   25956   25959   25957   25956   25958   25958   25956   25959
   25959   25962   25965   25959   25962   25964   25959   25962   25963
   25960   25959   25962   25960   25959   25961   25961   25959   25962
   25962   25965   25968   25962   25965   25967   25962   25965   25966
   25963   25962   25965   25963   25962   25964   25964   25962   25965
   25966   25965   25968   25966   25965   25967   25967   25965   25968
   25969   25972   25975   25969   25972   25974   25969   25972   25973
   25970   25969   25972   25970   25969   25971   25971   25969   25972
   25972   25975   25978   25972   25975   25977   25972   25975   25976
   25973   25972   25975   25973   25972   25974   25974   25972   25975
   25975   25978   25981   25975   25978   25980   25975   25978   25979
   25976   25975   25978   25976   25975   25977   25977   25975   25978
   25978   25981   25984   25978   25981   25983   25978   25981   25982
   25979   25978   25981   25979   25978   25980   25980   25978   25981
   25981   25984   25987   25981   25984   25986   25981   25984   25985
   25982   25981   25984   25982   25981   25983   25983   25981   25984
   25984   25987   25990   25984   25987   25989   25984   25987   25988
   25985   25984   25987   25985   25984   25986   25986   25984   25987
   25987   25990   25993   25987   25990   25992   25987   25990   25991
   25988   25987   25990   25988   25987   25989   25989   25987   25990
   25990   25993   25996   25990   25993   25995   25990   25993   25994
   25991   25990   25993   25991   25990   25992   25992   25990   25993
   25993   25996   25999   25993   25996   25998   25993   25996   25997
   25994   25993   25996   25994   25993   25995   25995   25993   25996
   25996   25999   26002   25996   25999   26001   25996   25999   26000
   25997   25996   25999   25997   25996   25998   25998   25996   25999
   25999   26002   26005   25999   26002   26004   25999   26002   26003
   26000   25999   26002   26000   25999   26001   26001   25999   26002
   26002   26005   26008   26002   26005   26007   26002   26005   26006
   26003   26002   26005   26003   26002   26004   26004   26002   26005
   26005   26008   26011   26005   26008   26010   26005   26008   26009
   26006   26005   26008   26006   26005   26007   26007   26005   26008
   26009   26008   26011   26009   26008   26010   26010   26008   26011
   26012   26016   26019   26012   26016   26018   26012   26016   26017
   26013   26012   26016   26013   26012   26015   26013   26012   26014
   26014   26012   26016   26014   26012   26015   26015   26012   26016
   26016   26019   26026   26016   26019   26021   26016   26019   26020
   26017   26016   26019   26017   26016   26018   26018   26016   26019
   26019   26026   26022   26020   26019   26026   26020   26019   26021
   26021   26019   26026   26022   26025   26027   26023   26022   26024
   26024   26022   26025   26023   26022   26025   26024   26022   26026
   26023   26022   26026   26025   26022   26026   26027   26030   26032
   26027   26030   26038   26027   26030   26031   26025   26027   26028
   26028   26027   26030   26028   26027   26029   26025   26027   26029
   26029   26027   26030   26030   26038   26041   26030   26038   26040
   26030   26038   26039   26030   26032   26033   26025   26027   26030
   26031   26030   26032   26031   26030   26038   26032   26033   26034
   26032   26033   26035   26033   26035   26047   26033   26035   26037
   26033   26035   26036   26035   26047   26050   26035   26047   26049
   26035   26047   26048   26034   26033   26035   26036   26035   26047
   26036   26035   26037   26037   26035   26047   26038   26041   26042
   26032   26030   26038   26039   26038   26041   26039   26038   26040
   26040   26038   26041   26041   26042   26043   26041   26042   26044
   26042   26044   26094   26042   26044   26046   26042   26044   26045
   26044   26094   26097   26044   26094   26096   26044   26094   26095
   26043   26042   26044   26045   26044   26094   26045   26044   26046
   26046   26044   26094   26047   26050   26053   26047   26050   26052
   26047   26050   26051   26048   26047   26050   26048   26047   26049
   26049   26047   26050   26050   26053   26056   26050   26053   26055
   26050   26053   26054   26051   26050   26053   26051   26050   26052
   26052   26050   26053   26053   26056   26059   26053   26056   26058
   26053   26056   26057   26054   26053   26056   26054   26053   26055
   26055   26053   26056   26056   26059   26062   26056   26059   26061
   26056   26059   26060   26057   26056   26059   26057   26056   26058
   26058   26056   26059   26059   26062   26065   26059   26062   26064
   26059   26062   26063   26060   26059   26062   26060   26059   26061
   26061   26059   26062   26062   26065   26067   26062   26065   26066
   26063   26062   26065   26063   26062   26064   26064   26062   26065
   26065   26067   26069   26065   26067   26068   26066   26065   26067
   26067   26069   26072   26067   26069   26071   26067   26069   26070
   26068   26067   26069   26069   26072   26075   26069   26072   26074
   26069   26072   26073   26070   26069   26072   26070   26069   26071
   26071   26069   26072   26072   26075   26078   26072   26075   26077
   26072   26075   26076   26073   26072   26075   26073   26072   26074
   26074   26072   26075   26075   26078   26081   26075   26078   26080
   26075   26078   26079   26076   26075   26078   26076   26075   26077
   26077   26075   26078   26078   26081   26084   26078   26081   26083
   26078   26081   26082   26079   26078   26081   26079   26078   26080
   26080   26078   26081   26081   26084   26087   26081   26084   26086
   26081   26084   26085   26082   26081   26084   26082   26081   26083
   26083   26081   26084   26084   26087   26090   26084   26087   26089
   26084   26087   26088   26085   26084   26087   26085   26084   26086
   26086   26084   26087   26087   26090   26093   26087   26090   26092
   26087   26090   26091   26088   26087   26090   26088   26087   26089
   26089   26087   26090   26091   26090   26093   26091   26090   26092
   26092   26090   26093   26094   26097   26100   26094   26097   26099
   26094   26097   26098   26095   26094   26097   26095   26094   26096
   26096   26094   26097   26097   26100   26103   26097   26100   26102
   26097   26100   26101   26098   26097   26100   26098   26097   26099
   26099   26097   26100   26100   26103   26106   26100   26103   26105
   26100   26103   26104   26101   26100   26103   26101   26100   26102
   26102   26100   26103   26103   26106   26109   26103   26106   26108
   26103   26106   26107   26104   26103   26106   26104   26103   26105
   26105   26103   26106   26106   26109   26112   26106   26109   26111
   26106   26109   26110   26107   26106   26109   26107   26106   26108
   26108   26106   26109   26109   26112   26115   26109   26112   26114
   26109   26112   26113   26110   26109   26112   26110   26109   26111
   26111   26109   26112   26112   26115   26118   26112   26115   26117
   26112   26115   26116   26113   26112   26115   26113   26112   26114
   26114   26112   26115   26115   26118   26121   26115   26118   26120
   26115   26118   26119   26116   26115   26118   26116   26115   26117
   26117   26115   26118   26118   26121   26124   26118   26121   26123
   26118   26121   26122   26119   26118   26121   26119   26118   26120
   26120   26118   26121   26121   26124   26127   26121   26124   26126
   26121   26124   26125   26122   26121   26124   26122   26121   26123
   26123   26121   26124   26124   26127   26130   26124   26127   26129
   26124   26127   26128   26125   26124   26127   26125   26124   26126
   26126   26124   26127   26127   26130   26133   26127   26130   26132
   26127   26130   26131   26128   26127   26130   26128   26127   26129
   26129   26127   26130   26130   26133   26136   26130   26133   26135
   26130   26133   26134   26131   26130   26133   26131   26130   26132
   26132   26130   26133   26134   26133   26136   26134   26133   26135
   26135   26133   26136   26137   26146   26149   26137   26146   26148
   26137   26146   26147   26137   26142   26145   26137   26142   26144
   26137   26142   26143   26137   26138   26141   26137   26138   26140
   26137   26138   26139   26139   26138   26141   26139   26138   26140
   26140   26138   26141   26138   26137   26142   26143   26142   26145
   26143   26142   26144   26144   26142   26145   26138   26137   26146
   26142   26137   26146   26147   26146   26149   26147   26146   26148
   26148   26146   26149   26138   26137   26150   26142   26137   26150
   26146   26137   26150   26137   26150   26151   26151   26150   26152
   26137   26150   26152   26137   26150   26153   26152   26150   26153
   26151   26150   26153   26150   26153   26154   26154   26153   26155
   26150   26153   26155   26153   26160   26156   26157   26156   26158
   26158   26156   26159   26157   26156   26159   26159   26156   26160
   26158   26156   26160   26157   26156   26160   26150   26153   26160
   26155   26153   26160   26154   26153   26160   26161   26166   26164
   26156   26159   26161   26159   26161   26162   26162   26161   26163
   26159   26161   26163   26164   26216   26217   26164   26216   26218
   26165   26164   26216   26166   26164   26216   26165   26164   26166
   26159   26161   26166   26163   26161   26166   26162   26161   26166
   26164   26166   26167   26161   26166   26167   26168   26172   26174
   26168   26170   26171   26164   26166   26168   26161   26166   26168
   26167   26166   26168   26166   26168   26169   26169   26168   26170
   26166   26168   26170   26166   26168   26172   26170   26168   26172
   26169   26168   26172   26173   26172   26174   26168   26172   26173
   26172   26174   26175   26172   26174   26176   26175   26174   26176
   26174   26176   26177   26177   26176   26178   26174   26176   26178
   26174   26176   26179   26178   26176   26179   26177   26176   26179
   26176   26179   26180   26180   26179   26181   26176   26179   26181
   26176   26179   26182   26181   26179   26182   26180   26179   26182
   26179   26182   26183   26183   26182   26184   26179   26182   26184
   26179   26182   26185   26184   26182   26185   26183   26182   26185
   26182   26185   26186   26186   26185   26187   26182   26185   26187
   26182   26185   26188   26187   26185   26188   26186   26185   26188
   26185   26188   26189   26189   26188   26190   26185   26188   26190
   26185   26188   26191   26190   26188   26191   26189   26188   26191
   26188   26191   26192   26192   26191   26193   26188   26191   26193
   26188   26191   26194   26193   26191   26194   26192   26191   26194
   26191   26194   26195   26195   26194   26196   26191   26194   26196
   26191   26194   26197   26196   26194   26197   26195   26194   26197
   26194   26197   26198   26198   26197   26199   26194   26197   26199
   26194   26197   26200   26199   26197   26200   26198   26197   26200
   26197   26200   26201   26201   26200   26202   26197   26200   26202
   26197   26200   26203   26202   26200   26203   26201   26200   26203
   26200   26203   26204   26204   26203   26205   26200   26203   26205
   26200   26203   26206   26205   26203   26206   26204   26203   26206
   26203   26206   26207   26207   26206   26208   26203   26206   26208
   26203   26206   26209   26208   26206   26209   26207   26206   26209
   26206   26209   26210   26210   26209   26211   26206   26209   26211
   26206   26209   26212   26211   26209   26212   26210   26209   26212
   26209   26212   26213   26213   26212   26215   26213   26212   26214
   26209   26212   26214   26214   26212   26215   26209   26212   26215
   26216   26218   26221   26216   26218   26220   26216   26218   26219
   26218   26221   26224   26218   26221   26223   26218   26221   26222
   26217   26216   26218   26219   26218   26221   26219   26218   26220
   26220   26218   26221   26221   26224   26227   26221   26224   26226
   26221   26224   26225   26222   26221   26224   26222   26221   26223
   26223   26221   26224   26224   26227   26230   26224   26227   26229
   26224   26227   26228   26225   26224   26227   26225   26224   26226
   26226   26224   26227   26227   26230   26233   26227   26230   26232
   26227   26230   26231   26228   26227   26230   26228   26227   26229
   26229   26227   26230   26230   26233   26236   26230   26233   26235
   26230   26233   26234   26231   26230   26233   26231   26230   26232
   26232   26230   26233   26233   26236   26239   26233   26236   26238
   26233   26236   26237   26234   26233   26236   26234   26233   26235
   26235   26233   26236   26236   26239   26242   26236   26239   26241
   26236   26239   26240   26237   26236   26239   26237   26236   26238
   26238   26236   26239   26239   26242   26245   26239   26242   26244
   26239   26242   26243   26240   26239   26242   26240   26239   26241
   26241   26239   26242   26242   26245   26248   26242   26245   26247
   26242   26245   26246   26243   26242   26245   26243   26242   26244
   26244   26242   26245   26245   26248   26251   26245   26248   26250
   26245   26248   26249   26246   26245   26248   26246   26245   26247
   26247   26245   26248   26248   26251   26254   26248   26251   26253
   26248   26251   26252   26249   26248   26251   26249   26248   26250
   26250   26248   26251   26251   26254   26257   26251   26254   26256
   26251   26254   26255   26252   26251   26254   26252   26251   26253
   26253   26251   26254   26254   26257   26260   26254   26257   26259
   26254   26257   26258   26255   26254   26257   26255   26254   26256
   26256   26254   26257   26257   26260   26263   26257   26260   26262
   26257   26260   26261   26258   26257   26260   26258   26257   26259
   26259   26257   26260   26261   26260   26263   26261   26260   26262
   26262   26260   26263   26264   26276   26279   26264   26276   26278
   26264   26276   26277   26264   26272   26275   26264   26272   26274
   26264   26272   26273   26264   26268   26271   26264   26268   26270
   26264   26268   26269   26264   26265   26280   26264   26265   26267
   26264   26265   26266   26265   26280   26286   26265   26280   26282
   26265   26280   26281   26266   26265   26280   26266   26265   26267
   26267   26265   26280   26265   26264   26268   26268   26264   26276
   26268   26264   26272   26269   26268   26271   26269   26268   26270
   26270   26268   26271   26265   26264   26272   26272   26264   26276
   26273   26272   26275   26273   26272   26274   26274   26272   26275
   26265   26264   26276   26277   26276   26279   26277   26276   26278
   26278   26276   26279   26280   26286   26283   26281   26280   26286
   26281   26280   26282   26282   26280   26286   26284   26283   26285
   26285   26283   26286   26284   26283   26286   26286   26283   26287
   26287   26288   26291   26287   26288   26290   26287   26288   26289
   26285   26283   26287   26284   26283   26287   26288   26291   26293
   26288   26291   26299   26288   26291   26292   26283   26287   26288
   26289   26288   26291   26289   26288   26290   26290   26288   26291
   26291   26299   26302   26291   26299   26301   26291   26299   26300
   26291   26293   26294   26292   26291   26293   26292   26291   26299
   26293   26294   26295   26293   26294   26296   26294   26296   26308
   26294   26296   26298   26294   26296   26297   26296   26308   26311
   26296   26308   26310   26296   26308   26309   26295   26294   26296
   26297   26296   26308   26297   26296   26298   26298   26296   26308
   26299   26302   26303   26293   26291   26299   26300   26299   26302
   26300   26299   26301   26301   26299   26302   26302   26303   26304
   26302   26303   26305   26303   26305   26355   26303   26305   26307
   26303   26305   26306   26305   26355   26358   26305   26355   26357
   26305   26355   26356   26304   26303   26305   26306   26305   26355
   26306   26305   26307   26307   26305   26355   26308   26311   26314
   26308   26311   26313   26308   26311   26312   26309   26308   26311
   26309   26308   26310   26310   26308   26311   26311   26314   26317
   26311   26314   26316   26311   26314   26315   26312   26311   26314
   26312   26311   26313   26313   26311   26314   26314   26317   26320
   26314   26317   26319   26314   26317   26318   26315   26314   26317
   26315   26314   26316   26316   26314   26317   26317   26320   26323
   26317   26320   26322   26317   26320   26321   26318   26317   26320
   26318   26317   26319   26319   26317   26320   26320   26323   26326
   26320   26323   26325   26320   26323   26324   26321   26320   26323
   26321   26320   26322   26322   26320   26323   26323   26326   26328
   26323   26326   26327   26324   26323   26326   26324   26323   26325
   26325   26323   26326   26326   26328   26330   26326   26328   26329
   26327   26326   26328   26328   26330   26333   26328   26330   26332
   26328   26330   26331   26329   26328   26330   26330   26333   26336
   26330   26333   26335   26330   26333   26334   26331   26330   26333
   26331   26330   26332   26332   26330   26333   26333   26336   26339
   26333   26336   26338   26333   26336   26337   26334   26333   26336
   26334   26333   26335   26335   26333   26336   26336   26339   26342
   26336   26339   26341   26336   26339   26340   26337   26336   26339
   26337   26336   26338   26338   26336   26339   26339   26342   26345
   26339   26342   26344   26339   26342   26343   26340   26339   26342
   26340   26339   26341   26341   26339   26342   26342   26345   26348
   26342   26345   26347   26342   26345   26346   26343   26342   26345
   26343   26342   26344   26344   26342   26345   26345   26348   26351
   26345   26348   26350   26345   26348   26349   26346   26345   26348
   26346   26345   26347   26347   26345   26348   26348   26351   26354
   26348   26351   26353   26348   26351   26352   26349   26348   26351
   26349   26348   26350   26350   26348   26351   26352   26351   26354
   26352   26351   26353   26353   26351   26354   26355   26358   26361
   26355   26358   26360   26355   26358   26359   26356   26355   26358
   26356   26355   26357   26357   26355   26358   26358   26361   26364
   26358   26361   26363   26358   26361   26362   26359   26358   26361
   26359   26358   26360   26360   26358   26361   26361   26364   26367
   26361   26364   26366   26361   26364   26365   26362   26361   26364
   26362   26361   26363   26363   26361   26364   26364   26367   26370
   26364   26367   26369   26364   26367   26368   26365   26364   26367
   26365   26364   26366   26366   26364   26367   26367   26370   26373
   26367   26370   26372   26367   26370   26371   26368   26367   26370
   26368   26367   26369   26369   26367   26370   26370   26373   26376
   26370   26373   26375   26370   26373   26374   26371   26370   26373
   26371   26370   26372   26372   26370   26373   26373   26376   26379
   26373   26376   26378   26373   26376   26377   26374   26373   26376
   26374   26373   26375   26375   26373   26376   26376   26379   26382
   26376   26379   26381   26376   26379   26380   26377   26376   26379
   26377   26376   26378   26378   26376   26379   26379   26382   26385
   26379   26382   26384   26379   26382   26383   26380   26379   26382
   26380   26379   26381   26381   26379   26382   26382   26385   26388
   26382   26385   26387   26382   26385   26386   26383   26382   26385
   26383   26382   26384   26384   26382   26385   26385   26388   26391
   26385   26388   26390   26385   26388   26389   26386   26385   26388
   26386   26385   26387   26387   26385   26388   26388   26391   26394
   26388   26391   26393   26388   26391   26392   26389   26388   26391
   26389   26388   26390   26390   26388   26391   26391   26394   26397
   26391   26394   26396   26391   26394   26395   26392   26391   26394
   26392   26391   26393   26393   26391   26394   26395   26394   26397
   26395   26394   26396   26396   26394   26397   26398   26402   26405
   26398   26402   26404   26398   26402   26403   26399   26398   26402
   26399   26398   26401   26399   26398   26400   26400   26398   26402
   26400   26398   26401   26401   26398   26402   26402   26405   26412
   26402   26405   26407   26402   26405   26406   26403   26402   26405
   26403   26402   26404   26404   26402   26405   26405   26412   26408
   26406   26405   26412   26406   26405   26407   26407   26405   26412
   26408   26411   26413   26409   26408   26410   26410   26408   26411
   26409   26408   26411   26410   26408   26412   26409   26408   26412
   26411   26408   26412   26413   26416   26418   26413   26416   26424
   26413   26416   26417   26411   26413   26414   26414   26413   26416
   26414   26413   26415   26411   26413   26415   26415   26413   26416
   26416   26424   26427   26416   26424   26426   26416   26424   26425
   26416   26418   26419   26411   26413   26416   26417   26416   26418
   26417   26416   26424   26418   26419   26420   26418   26419   26421
   26419   26421   26433   26419   26421   26423   26419   26421   26422
   26421   26433   26436   26421   26433   26435   26421   26433   26434
   26420   26419   26421   26422   26421   26433   26422   26421   26423
   26423   26421   26433   26424   26427   26428   26418   26416   26424
   26425   26424   26427   26425   26424   26426   26426   26424   26427
   26427   26428   26429   26427   26428   26430   26428   26430   26480
   26428   26430   26432   26428   26430   26431   26430   26480   26483
   26430   26480   26482   26430   26480   26481   26429   26428   26430
   26431   26430   26480   26431   26430   26432   26432   26430   26480
   26433   26436   26439   26433   26436   26438   26433   26436   26437
   26434   26433   26436   26434   26433   26435   26435   26433   26436
   26436   26439   26442   26436   26439   26441   26436   26439   26440
   26437   26436   26439   26437   26436   26438   26438   26436   26439
   26439   26442   26445   26439   26442   26444   26439   26442   26443
   26440   26439   26442   26440   26439   26441   26441   26439   26442
   26442   26445   26448   26442   26445   26447   26442   26445   26446
   26443   26442   26445   26443   26442   26444   26444   26442   26445
   26445   26448   26451   26445   26448   26450   26445   26448   26449
   26446   26445   26448   26446   26445   26447   26447   26445   26448
   26448   26451   26453   26448   26451   26452   26449   26448   26451
   26449   26448   26450   26450   26448   26451   26451   26453   26455
   26451   26453   26454   26452   26451   26453   26453   26455   26458
   26453   26455   26457   26453   26455   26456   26454   26453   26455
   26455   26458   26461   26455   26458   26460   26455   26458   26459
   26456   26455   26458   26456   26455   26457   26457   26455   26458
   26458   26461   26464   26458   26461   26463   26458   26461   26462
   26459   26458   26461   26459   26458   26460   26460   26458   26461
   26461   26464   26467   26461   26464   26466   26461   26464   26465
   26462   26461   26464   26462   26461   26463   26463   26461   26464
   26464   26467   26470   26464   26467   26469   26464   26467   26468
   26465   26464   26467   26465   26464   26466   26466   26464   26467
   26467   26470   26473   26467   26470   26472   26467   26470   26471
   26468   26467   26470   26468   26467   26469   26469   26467   26470
   26470   26473   26476   26470   26473   26475   26470   26473   26474
   26471   26470   26473   26471   26470   26472   26472   26470   26473
   26473   26476   26479   26473   26476   26478   26473   26476   26477
   26474   26473   26476   26474   26473   26475   26475   26473   26476
   26477   26476   26479   26477   26476   26478   26478   26476   26479
   26480   26483   26486   26480   26483   26485   26480   26483   26484
   26481   26480   26483   26481   26480   26482   26482   26480   26483
   26483   26486   26489   26483   26486   26488   26483   26486   26487
   26484   26483   26486   26484   26483   26485   26485   26483   26486
   26486   26489   26492   26486   26489   26491   26486   26489   26490
   26487   26486   26489   26487   26486   26488   26488   26486   26489
   26489   26492   26495   26489   26492   26494   26489   26492   26493
   26490   26489   26492   26490   26489   26491   26491   26489   26492
   26492   26495   26498   26492   26495   26497   26492   26495   26496
   26493   26492   26495   26493   26492   26494   26494   26492   26495
   26495   26498   26501   26495   26498   26500   26495   26498   26499
   26496   26495   26498   26496   26495   26497   26497   26495   26498
   26498   26501   26504   26498   26501   26503   26498   26501   26502
   26499   26498   26501   26499   26498   26500   26500   26498   26501
   26501   26504   26507   26501   26504   26506   26501   26504   26505
   26502   26501   26504   26502   26501   26503   26503   26501   26504
   26504   26507   26510   26504   26507   26509   26504   26507   26508
   26505   26504   26507   26505   26504   26506   26506   26504   26507
   26507   26510   26513   26507   26510   26512   26507   26510   26511
   26508   26507   26510   26508   26507   26509   26509   26507   26510
   26510   26513   26516   26510   26513   26515   26510   26513   26514
   26511   26510   26513   26511   26510   26512   26512   26510   26513
   26513   26516   26519   26513   26516   26518   26513   26516   26517
   26514   26513   26516   26514   26513   26515   26515   26513   26516
   26516   26519   26522   26516   26519   26521   26516   26519   26520
   26517   26516   26519   26517   26516   26518   26518   26516   26519
   26520   26519   26522   26520   26519   26521   26521   26519   26522
   26523   26535   26538   26523   26535   26537   26523   26535   26536
   26523   26531   26534   26523   26531   26533   26523   26531   26532
   26523   26527   26530   26523   26527   26529   26523   26527   26528
   26523   26524   26539   26523   26524   26526   26523   26524   26525
   26524   26539   26545   26524   26539   26541   26524   26539   26540
   26525   26524   26539   26525   26524   26526   26526   26524   26539
   26524   26523   26527   26527   26523   26535   26527   26523   26531
   26528   26527   26530   26528   26527   26529   26529   26527   26530
   26524   26523   26531   26531   26523   26535   26532   26531   26534
   26532   26531   26533   26533   26531   26534   26524   26523   26535
   26536   26535   26538   26536   26535   26537   26537   26535   26538
   26539   26545   26542   26540   26539   26545   26540   26539   26541
   26541   26539   26545   26543   26542   26544   26544   26542   26545
   26543   26542   26545   26545   26542   26546   26546   26547   26550
   26546   26547   26549   26546   26547   26548   26544   26542   26546
   26543   26542   26546   26547   26550   26552   26547   26550   26558
   26547   26550   26551   26542   26546   26547   26548   26547   26550
   26548   26547   26549   26549   26547   26550   26550   26558   26561
   26550   26558   26560   26550   26558   26559   26550   26552   26553
   26551   26550   26552   26551   26550   26558   26552   26553   26554
   26552   26553   26555   26553   26555   26567   26553   26555   26557
   26553   26555   26556   26555   26567   26570   26555   26567   26569
   26555   26567   26568   26554   26553   26555   26556   26555   26567
   26556   26555   26557   26557   26555   26567   26558   26561   26562
   26552   26550   26558   26559   26558   26561   26559   26558   26560
   26560   26558   26561   26561   26562   26563   26561   26562   26564
   26562   26564   26614   26562   26564   26566   26562   26564   26565
   26564   26614   26617   26564   26614   26616   26564   26614   26615
   26563   26562   26564   26565   26564   26614   26565   26564   26566
   26566   26564   26614   26567   26570   26573   26567   26570   26572
   26567   26570   26571   26568   26567   26570   26568   26567   26569
   26569   26567   26570   26570   26573   26576   26570   26573   26575
   26570   26573   26574   26571   26570   26573   26571   26570   26572
   26572   26570   26573   26573   26576   26579   26573   26576   26578
   26573   26576   26577   26574   26573   26576   26574   26573   26575
   26575   26573   26576   26576   26579   26582   26576   26579   26581
   26576   26579   26580   26577   26576   26579   26577   26576   26578
   26578   26576   26579   26579   26582   26585   26579   26582   26584
   26579   26582   26583   26580   26579   26582   26580   26579   26581
   26581   26579   26582   26582   26585   26587   26582   26585   26586
   26583   26582   26585   26583   26582   26584   26584   26582   26585
   26585   26587   26589   26585   26587   26588   26586   26585   26587
   26587   26589   26592   26587   26589   26591   26587   26589   26590
   26588   26587   26589   26589   26592   26595   26589   26592   26594
   26589   26592   26593   26590   26589   26592   26590   26589   26591
   26591   26589   26592   26592   26595   26598   26592   26595   26597
   26592   26595   26596   26593   26592   26595   26593   26592   26594
   26594   26592   26595   26595   26598   26601   26595   26598   26600
   26595   26598   26599   26596   26595   26598   26596   26595   26597
   26597   26595   26598   26598   26601   26604   26598   26601   26603
   26598   26601   26602   26599   26598   26601   26599   26598   26600
   26600   26598   26601   26601   26604   26607   26601   26604   26606
   26601   26604   26605   26602   26601   26604   26602   26601   26603
   26603   26601   26604   26604   26607   26610   26604   26607   26609
   26604   26607   26608   26605   26604   26607   26605   26604   26606
   26606   26604   26607   26607   26610   26613   26607   26610   26612
   26607   26610   26611   26608   26607   26610   26608   26607   26609
   26609   26607   26610   26611   26610   26613   26611   26610   26612
   26612   26610   26613   26614   26617   26620   26614   26617   26619
   26614   26617   26618   26615   26614   26617   26615   26614   26616
   26616   26614   26617   26617   26620   26623   26617   26620   26622
   26617   26620   26621   26618   26617   26620   26618   26617   26619
   26619   26617   26620   26620   26623   26626   26620   26623   26625
   26620   26623   26624   26621   26620   26623   26621   26620   26622
   26622   26620   26623   26623   26626   26629   26623   26626   26628
   26623   26626   26627   26624   26623   26626   26624   26623   26625
   26625   26623   26626   26626   26629   26632   26626   26629   26631
   26626   26629   26630   26627   26626   26629   26627   26626   26628
   26628   26626   26629   26629   26632   26635   26629   26632   26634
   26629   26632   26633   26630   26629   26632   26630   26629   26631
   26631   26629   26632   26632   26635   26638   26632   26635   26637
   26632   26635   26636   26633   26632   26635   26633   26632   26634
   26634   26632   26635   26635   26638   26641   26635   26638   26640
   26635   26638   26639   26636   26635   26638   26636   26635   26637
   26637   26635   26638   26638   26641   26644   26638   26641   26643
   26638   26641   26642   26639   26638   26641   26639   26638   26640
   26640   26638   26641   26641   26644   26647   26641   26644   26646
   26641   26644   26645   26642   26641   26644   26642   26641   26643
   26643   26641   26644   26644   26647   26650   26644   26647   26649
   26644   26647   26648   26645   26644   26647   26645   26644   26646
   26646   26644   26647   26647   26650   26653   26647   26650   26652
   26647   26650   26651   26648   26647   26650   26648   26647   26649
   26649   26647   26650   26650   26653   26656   26650   26653   26655
   26650   26653   26654   26651   26650   26653   26651   26650   26652
   26652   26650   26653   26654   26653   26656   26654   26653   26655
   26655   26653   26656   26657   26666   26669   26657   26666   26668
   26657   26666   26667   26657   26662   26665   26657   26662   26664
   26657   26662   26663   26657   26658   26661   26657   26658   26660
   26657   26658   26659   26659   26658   26661   26659   26658   26660
   26660   26658   26661   26658   26657   26662   26663   26662   26665
   26663   26662   26664   26664   26662   26665   26658   26657   26666
   26662   26657   26666   26667   26666   26669   26667   26666   26668
   26668   26666   26669   26658   26657   26670   26662   26657   26670
   26666   26657   26670   26657   26670   26671   26671   26670   26672
   26657   26670   26672   26657   26670   26673   26672   26670   26673
   26671   26670   26673   26670   26673   26674   26674   26673   26675
   26670   26673   26675   26673   26680   26676   26677   26676   26678
   26678   26676   26679   26677   26676   26679   26679   26676   26680
   26678   26676   26680   26677   26676   26680   26670   26673   26680
   26675   26673   26680   26674   26673   26680   26681   26686   26684
   26676   26679   26681   26679   26681   26682   26682   26681   26683
   26679   26681   26683   26684   26736   26737   26684   26736   26738
   26685   26684   26736   26686   26684   26736   26685   26684   26686
   26679   26681   26686   26683   26681   26686   26682   26681   26686
   26684   26686   26687   26681   26686   26687   26688   26692   26694
   26688   26690   26691   26684   26686   26688   26681   26686   26688
   26687   26686   26688   26686   26688   26689   26689   26688   26690
   26686   26688   26690   26686   26688   26692   26690   26688   26692
   26689   26688   26692   26693   26692   26694   26688   26692   26693
   26692   26694   26695   26692   26694   26696   26695   26694   26696
   26694   26696   26697   26697   26696   26698   26694   26696   26698
   26694   26696   26699   26698   26696   26699   26697   26696   26699
   26696   26699   26700   26700   26699   26701   26696   26699   26701
   26696   26699   26702   26701   26699   26702   26700   26699   26702
   26699   26702   26703   26703   26702   26704   26699   26702   26704
   26699   26702   26705   26704   26702   26705   26703   26702   26705
   26702   26705   26706   26706   26705   26707   26702   26705   26707
   26702   26705   26708   26707   26705   26708   26706   26705   26708
   26705   26708   26709   26709   26708   26710   26705   26708   26710
   26705   26708   26711   26710   26708   26711   26709   26708   26711
   26708   26711   26712   26712   26711   26713   26708   26711   26713
   26708   26711   26714   26713   26711   26714   26712   26711   26714
   26711   26714   26715   26715   26714   26716   26711   26714   26716
   26711   26714   26717   26716   26714   26717   26715   26714   26717
   26714   26717   26718   26718   26717   26719   26714   26717   26719
   26714   26717   26720   26719   26717   26720   26718   26717   26720
   26717   26720   26721   26721   26720   26722   26717   26720   26722
   26717   26720   26723   26722   26720   26723   26721   26720   26723
   26720   26723   26724   26724   26723   26725   26720   26723   26725
   26720   26723   26726   26725   26723   26726   26724   26723   26726
   26723   26726   26727   26727   26726   26728   26723   26726   26728
   26723   26726   26729   26728   26726   26729   26727   26726   26729
   26726   26729   26730   26730   26729   26731   26726   26729   26731
   26726   26729   26732   26731   26729   26732   26730   26729   26732
   26729   26732   26733   26733   26732   26735   26733   26732   26734
   26729   26732   26734   26734   26732   26735   26729   26732   26735
   26736   26738   26741   26736   26738   26740   26736   26738   26739
   26738   26741   26744   26738   26741   26743   26738   26741   26742
   26737   26736   26738   26739   26738   26741   26739   26738   26740
   26740   26738   26741   26741   26744   26747   26741   26744   26746
   26741   26744   26745   26742   26741   26744   26742   26741   26743
   26743   26741   26744   26744   26747   26750   26744   26747   26749
   26744   26747   26748   26745   26744   26747   26745   26744   26746
   26746   26744   26747   26747   26750   26753   26747   26750   26752
   26747   26750   26751   26748   26747   26750   26748   26747   26749
   26749   26747   26750   26750   26753   26756   26750   26753   26755
   26750   26753   26754   26751   26750   26753   26751   26750   26752
   26752   26750   26753   26753   26756   26759   26753   26756   26758
   26753   26756   26757   26754   26753   26756   26754   26753   26755
   26755   26753   26756   26756   26759   26762   26756   26759   26761
   26756   26759   26760   26757   26756   26759   26757   26756   26758
   26758   26756   26759   26759   26762   26765   26759   26762   26764
   26759   26762   26763   26760   26759   26762   26760   26759   26761
   26761   26759   26762   26762   26765   26768   26762   26765   26767
   26762   26765   26766   26763   26762   26765   26763   26762   26764
   26764   26762   26765   26765   26768   26771   26765   26768   26770
   26765   26768   26769   26766   26765   26768   26766   26765   26767
   26767   26765   26768   26768   26771   26774   26768   26771   26773
   26768   26771   26772   26769   26768   26771   26769   26768   26770
   26770   26768   26771   26771   26774   26777   26771   26774   26776
   26771   26774   26775   26772   26771   26774   26772   26771   26773
   26773   26771   26774   26774   26777   26780   26774   26777   26779
   26774   26777   26778   26775   26774   26777   26775   26774   26776
   26776   26774   26777   26777   26780   26783   26777   26780   26782
   26777   26780   26781   26778   26777   26780   26778   26777   26779
   26779   26777   26780   26781   26780   26783   26781   26780   26782
   26782   26780   26783   26784   26796   26799   26784   26796   26798
   26784   26796   26797   26784   26792   26795   26784   26792   26794
   26784   26792   26793   26784   26788   26791   26784   26788   26790
   26784   26788   26789   26784   26785   26800   26784   26785   26787
   26784   26785   26786   26785   26800   26806   26785   26800   26802
   26785   26800   26801   26786   26785   26800   26786   26785   26787
   26787   26785   26800   26785   26784   26788   26788   26784   26796
   26788   26784   26792   26789   26788   26791   26789   26788   26790
   26790   26788   26791   26785   26784   26792   26792   26784   26796
   26793   26792   26795   26793   26792   26794   26794   26792   26795
   26785   26784   26796   26797   26796   26799   26797   26796   26798
   26798   26796   26799   26800   26806   26803   26801   26800   26806
   26801   26800   26802   26802   26800   26806   26804   26803   26805
   26805   26803   26806   26804   26803   26806   26806   26803   26807
   26807   26808   26811   26807   26808   26810   26807   26808   26809
   26805   26803   26807   26804   26803   26807   26808   26811   26813
   26808   26811   26819   26808   26811   26812   26803   26807   26808
   26809   26808   26811   26809   26808   26810   26810   26808   26811
   26811   26819   26822   26811   26819   26821   26811   26819   26820
   26811   26813   26814   26812   26811   26813   26812   26811   26819
   26813   26814   26815   26813   26814   26816   26814   26816   26828
   26814   26816   26818   26814   26816   26817   26816   26828   26831
   26816   26828   26830   26816   26828   26829   26815   26814   26816
   26817   26816   26828   26817   26816   26818   26818   26816   26828
   26819   26822   26823   26813   26811   26819   26820   26819   26822
   26820   26819   26821   26821   26819   26822   26822   26823   26824
   26822   26823   26825   26823   26825   26875   26823   26825   26827
   26823   26825   26826   26825   26875   26878   26825   26875   26877
   26825   26875   26876   26824   26823   26825   26826   26825   26875
   26826   26825   26827   26827   26825   26875   26828   26831   26834
   26828   26831   26833   26828   26831   26832   26829   26828   26831
   26829   26828   26830   26830   26828   26831   26831   26834   26837
   26831   26834   26836   26831   26834   26835   26832   26831   26834
   26832   26831   26833   26833   26831   26834   26834   26837   26840
   26834   26837   26839   26834   26837   26838   26835   26834   26837
   26835   26834   26836   26836   26834   26837   26837   26840   26843
   26837   26840   26842   26837   26840   26841   26838   26837   26840
   26838   26837   26839   26839   26837   26840   26840   26843   26846
   26840   26843   26845   26840   26843   26844   26841   26840   26843
   26841   26840   26842   26842   26840   26843   26843   26846   26848
   26843   26846   26847   26844   26843   26846   26844   26843   26845
   26845   26843   26846   26846   26848   26850   26846   26848   26849
   26847   26846   26848   26848   26850   26853   26848   26850   26852
   26848   26850   26851   26849   26848   26850   26850   26853   26856
   26850   26853   26855   26850   26853   26854   26851   26850   26853
   26851   26850   26852   26852   26850   26853   26853   26856   26859
   26853   26856   26858   26853   26856   26857   26854   26853   26856
   26854   26853   26855   26855   26853   26856   26856   26859   26862
   26856   26859   26861   26856   26859   26860   26857   26856   26859
   26857   26856   26858   26858   26856   26859   26859   26862   26865
   26859   26862   26864   26859   26862   26863   26860   26859   26862
   26860   26859   26861   26861   26859   26862   26862   26865   26868
   26862   26865   26867   26862   26865   26866   26863   26862   26865
   26863   26862   26864   26864   26862   26865   26865   26868   26871
   26865   26868   26870   26865   26868   26869   26866   26865   26868
   26866   26865   26867   26867   26865   26868   26868   26871   26874
   26868   26871   26873   26868   26871   26872   26869   26868   26871
   26869   26868   26870   26870   26868   26871   26872   26871   26874
   26872   26871   26873   26873   26871   26874   26875   26878   26881
   26875   26878   26880   26875   26878   26879   26876   26875   26878
   26876   26875   26877   26877   26875   26878   26878   26881   26884
   26878   26881   26883   26878   26881   26882   26879   26878   26881
   26879   26878   26880   26880   26878   26881   26881   26884   26887
   26881   26884   26886   26881   26884   26885   26882   26881   26884
   26882   26881   26883   26883   26881   26884   26884   26887   26890
   26884   26887   26889   26884   26887   26888   26885   26884   26887
   26885   26884   26886   26886   26884   26887   26887   26890   26893
   26887   26890   26892   26887   26890   26891   26888   26887   26890
   26888   26887   26889   26889   26887   26890   26890   26893   26896
   26890   26893   26895   26890   26893   26894   26891   26890   26893
   26891   26890   26892   26892   26890   26893   26893   26896   26899
   26893   26896   26898   26893   26896   26897   26894   26893   26896
   26894   26893   26895   26895   26893   26896   26896   26899   26902
   26896   26899   26901   26896   26899   26900   26897   26896   26899
   26897   26896   26898   26898   26896   26899   26899   26902   26905
   26899   26902   26904   26899   26902   26903   26900   26899   26902
   26900   26899   26901   26901   26899   26902   26902   26905   26908
   26902   26905   26907   26902   26905   26906   26903   26902   26905
   26903   26902   26904   26904   26902   26905   26905   26908   26911
   26905   26908   26910   26905   26908   26909   26906   26905   26908
   26906   26905   26907   26907   26905   26908   26908   26911   26914
   26908   26911   26913   26908   26911   26912   26909   26908   26911
   26909   26908   26910   26910   26908   26911   26911   26914   26917
   26911   26914   26916   26911   26914   26915   26912   26911   26914
   26912   26911   26913   26913   26911   26914   26915   26914   26917
   26915   26914   26916   26916   26914   26917   26918   26922   26927
   26918   26922   26923   26918   26922   26924   26919   26918   26922
   26919   26918   26921   26919   26918   26920   26920   26918   26922
   26920   26918   26921   26921   26918   26922   26922   26927   26933
   26922   26927   26929   26922   26927   26928   26922   26924   26925
   26923   26922   26927   26924   26922   26927   26923   26922   26924
   26925   26924   26926   26922   26924   26926   26927   26933   26930
   26928   26927   26933   26928   26927   26929   26929   26927   26933
   26931   26930   26932   26932   26930   26933   26931   26930   26933
   26933   26930   26934   26934   26935   26938   26934   26935   26937
   26934   26935   26936   26932   26930   26934   26931   26930   26934
   26935   26938   26940   26935   26938   26946   26935   26938   26939
   26930   26934   26935   26936   26935   26938   26936   26935   26937
   26937   26935   26938   26938   26946   26949   26938   26946   26948
   26938   26946   26947   26938   26940   26941   26939   26938   26940
   26939   26938   26946   26940   26941   26942   26940   26941   26943
   26941   26943   26955   26941   26943   26945   26941   26943   26944
   26943   26955   26958   26943   26955   26957   26943   26955   26956
   26942   26941   26943   26944   26943   26955   26944   26943   26945
   26945   26943   26955   26946   26949   26950   26940   26938   26946
   26947   26946   26949   26947   26946   26948   26948   26946   26949
   26949   26950   26951   26949   26950   26952   26950   26952   27002
   26950   26952   26954   26950   26952   26953   26952   27002   27005
   26952   27002   27004   26952   27002   27003   26951   26950   26952
   26953   26952   27002   26953   26952   26954   26954   26952   27002
   26955   26958   26961   26955   26958   26960   26955   26958   26959
   26956   26955   26958   26956   26955   26957   26957   26955   26958
   26958   26961   26964   26958   26961   26963   26958   26961   26962
   26959   26958   26961   26959   26958   26960   26960   26958   26961
   26961   26964   26967   26961   26964   26966   26961   26964   26965
   26962   26961   26964   26962   26961   26963   26963   26961   26964
   26964   26967   26970   26964   26967   26969   26964   26967   26968
   26965   26964   26967   26965   26964   26966   26966   26964   26967
   26967   26970   26973   26967   26970   26972   26967   26970   26971
   26968   26967   26970   26968   26967   26969   26969   26967   26970
   26970   26973   26975   26970   26973   26974   26971   26970   26973
   26971   26970   26972   26972   26970   26973   26973   26975   26977
   26973   26975   26976   26974   26973   26975   26975   26977   26980
   26975   26977   26979   26975   26977   26978   26976   26975   26977
   26977   26980   26983   26977   26980   26982   26977   26980   26981
   26978   26977   26980   26978   26977   26979   26979   26977   26980
   26980   26983   26986   26980   26983   26985   26980   26983   26984
   26981   26980   26983   26981   26980   26982   26982   26980   26983
   26983   26986   26989   26983   26986   26988   26983   26986   26987
   26984   26983   26986   26984   26983   26985   26985   26983   26986
   26986   26989   26992   26986   26989   26991   26986   26989   26990
   26987   26986   26989   26987   26986   26988   26988   26986   26989
   26989   26992   26995   26989   26992   26994   26989   26992   26993
   26990   26989   26992   26990   26989   26991   26991   26989   26992
   26992   26995   26998   26992   26995   26997   26992   26995   26996
   26993   26992   26995   26993   26992   26994   26994   26992   26995
   26995   26998   27001   26995   26998   27000   26995   26998   26999
   26996   26995   26998   26996   26995   26997   26997   26995   26998
   26999   26998   27001   26999   26998   27000   27000   26998   27001
   27002   27005   27008   27002   27005   27007   27002   27005   27006
   27003   27002   27005   27003   27002   27004   27004   27002   27005
   27005   27008   27011   27005   27008   27010   27005   27008   27009
   27006   27005   27008   27006   27005   27007   27007   27005   27008
   27008   27011   27014   27008   27011   27013   27008   27011   27012
   27009   27008   27011   27009   27008   27010   27010   27008   27011
   27011   27014   27017   27011   27014   27016   27011   27014   27015
   27012   27011   27014   27012   27011   27013   27013   27011   27014
   27014   27017   27020   27014   27017   27019   27014   27017   27018
   27015   27014   27017   27015   27014   27016   27016   27014   27017
   27017   27020   27023   27017   27020   27022   27017   27020   27021
   27018   27017   27020   27018   27017   27019   27019   27017   27020
   27020   27023   27026   27020   27023   27025   27020   27023   27024
   27021   27020   27023   27021   27020   27022   27022   27020   27023
   27023   27026   27029   27023   27026   27028   27023   27026   27027
   27024   27023   27026   27024   27023   27025   27025   27023   27026
   27026   27029   27032   27026   27029   27031   27026   27029   27030
   27027   27026   27029   27027   27026   27028   27028   27026   27029
   27029   27032   27035   27029   27032   27034   27029   27032   27033
   27030   27029   27032   27030   27029   27031   27031   27029   27032
   27032   27035   27038   27032   27035   27037   27032   27035   27036
   27033   27032   27035   27033   27032   27034   27034   27032   27035
   27035   27038   27041   27035   27038   27040   27035   27038   27039
   27036   27035   27038   27036   27035   27037   27037   27035   27038
   27038   27041   27044   27038   27041   27043   27038   27041   27042
   27039   27038   27041   27039   27038   27040   27040   27038   27041
   27042   27041   27044   27042   27041   27043   27043   27041   27044

   35782 !NPHI: dihedrals
       1       5       7       9       1       5       7       8
       2       1       5       6       2       1       5       7
       3       1       5       6       3       1       5       7
       4       1       5       6       4       1       5       7
       5       7       9      10       5       7       9      22
       5       7       9      11       6       5       7       9
       6       5       7       8       7       9      22      23
       7       9      22      24       7       9      11      13
       7       9      11      12       7       9      11      14
       8       7       9      10       8       7       9      22
       8       7       9      11       9      22      24      26
       9      22      24      25       9      11      14      16
       9      11      14      15       9      11      14      17
      10       9      22      23      10       9      22      24
      10       9      11      13      10       9      11      12
      10       9      11      14      11      14      17      18
      11      14      17      19      11       9      22      23
      11       9      22      24      12      11      14      16
      12      11      14      15      12      11      14      17
      22       9      11      12      13      11      14      16
      13      11      14      15      13      11      14      17
      22       9      11      13      14      17      19      21
      14      17      19      20      22       9      11      14
      15      14      17      18      15      14      17      19
      16      14      17      18      16      14      17      19
      18      17      19      21      18      17      19      20
      22      24      26      27      22      24      26      32
      22      24      26      28      23      22      24      26
      23      22      24      25      24      26      32      33
      24      26      32      34      24      26      28      31
      24      26      28      30      24      26      28      29
      25      24      26      27      25      24      26      32
      25      24      26      28      26      32      34      35
      26      32      34      38      27      26      32      33
      27      26      32      34      27      26      28      31
      27      26      28      30      27      26      28      29
      28      26      32      33      28      26      32      34
      32      26      28      29      32      26      28      30
      32      26      28      31      32      34      35      37
      32      34      35      36      32      34      35      43
      32      34      38      39      32      34      38      40
      32      34      38      46      33      32      34      35
      33      32      34      38      34      35      43      45
      34      35      43      44      34      35      43      40
      34      38      40      42      34      38      40      41
      34      38      40      43      34      38      46      47
      34      38      46      48      35      34      38      39
      35      34      38      40      35      34      38      46
      42      40      43      35      41      40      43      35
      38      40      43      35      38      34      35      36
      36      35      43      45      36      35      43      44
      36      35      43      40      38      34      35      37
      37      35      43      45      37      35      43      44
      37      35      43      40      38      40      43      45
      38      40      43      44      38      34      35      43
      38      46      48      50      38      46      48      49
      39      38      40      42      39      38      40      41
      39      38      40      43      39      38      46      47
      39      38      46      48      40      38      46      47
      40      38      46      48      41      40      43      45
      41      40      43      44      46      38      40      41
      42      40      43      45      42      40      43      44
      46      38      40      42      46      38      40      43
      46      48      50      51      46      48      50      56
      46      48      50      52      47      46      48      50
      47      46      48      49      48      50      56      57
      48      50      56      58      48      50      52      55
      48      50      52      54      48      50      52      53
      49      48      50      51      49      48      50      56
      49      48      50      52      50      56      58      60
      50      56      58      59      51      50      56      57
      51      50      56      58      51      50      52      55
      51      50      52      54      51      50      52      53
      52      50      56      57      52      50      56      58
      56      50      52      53      56      50      52      54
      56      50      52      55      56      58      60      61
      56      58      60      77      56      58      60      62
      57      56      58      60      57      56      58      59
      58      60      77      78      58      60      77      79
      58      60      62      64      58      60      62      63
      58      60      62      65      59      58      60      61
      59      58      60      77      59      58      60      62
      60      77      79      81      60      77      79      80
      60      62      65      66      60      62      65      73
      61      60      77      78      61      60      77      79
      61      60      62      64      61      60      62      63
      61      60      62      65      62      65      66      67
      62      65      66      68      62      65      73      75
      62      65      73      74      62      60      77      78
      62      60      77      79      63      62      65      66
      63      62      65      73      77      60      62      63
      64      62      65      66      64      62      65      73
      77      60      62      64      65      66      68      70
      65      66      68      69      65      73      75      76
      65      73      75      70      77      60      62      65
      66      65      73      75      66      65      73      74
      66      68      70      71      66      68      70      75
      73      65      66      67      67      66      68      70
      67      66      68      69      68      70      71      72
      68      70      75      73      68      70      75      76
      73      65      66      68      69      68      70      71
      69      68      70      75      74      73      75      70
      71      70      75      73      71      70      75      76
      75      70      71      72      74      73      75      76
      77      79      81      82      77      79      81      99
      77      79      81      83      78      77      79      81
      78      77      79      80      79      81      99     100
      79      81      99     101      79      81      83      85
      79      81      83      84      79      81      83      86
      80      79      81      82      80      79      81      99
      80      79      81      83      81      99     101     103
      81      99     101     102      81      83      86      88
      81      83      86      87      81      83      86      89
      82      81      99     100      82      81      99     101
      82      81      83      85      82      81      83      84
      82      81      83      86      83      86      89      91
      83      86      89      90      83      86      89      92
      83      81      99     100      83      81      99     101
      84      83      86      88      84      83      86      87
      84      83      86      89      99      81      83      84
      85      83      86      88      85      83      86      87
      85      83      86      89      99      81      83      85
      86      89      92      94      86      89      92      93
      86      89      92      95      99      81      83      86
      87      86      89      91      87      86      89      90
      87      86      89      92      88      86      89      91
      88      86      89      90      88      86      89      92
      89      92      95      98      89      92      95      97
      89      92      95      96      90      89      92      94
      90      89      92      93      90      89      92      95
      91      89      92      94      91      89      92      93
      91      89      92      95      93      92      95      98
      93      92      95      97      93      92      95      96
      94      92      95      98      94      92      95      97
      94      92      95      96      99     101     103     104
      99     101     103     121      99     101     103     105
     100      99     101     103     100      99     101     102
     101     103     121     122     101     103     121     123
     101     103     105     107     101     103     105     106
     101     103     105     108     102     101     103     104
     102     101     103     121     102     101     103     105
     103     121     123     125     103     121     123     124
     103     105     108     110     103     105     108     109
     103     105     108     111     104     103     121     122
     104     103     121     123     104     103     105     107
     104     103     105     106     104     103     105     108
     105     108     111     113     105     108     111     112
     105     108     111     114     105     103     121     122
     105     103     121     123     106     105     108     110
     106     105     108     109     106     105     108     111
     121     103     105     106     107     105     108     110
     107     105     108     109     107     105     108     111
     121     103     105     107     108     111     114     116
     108     111     114     115     108     111     114     117
     121     103     105     108     109     108     111     113
     109     108     111     112     109     108     111     114
     110     108     111     113     110     108     111     112
     110     108     111     114     111     114     117     120
     111     114     117     119     111     114     117     118
     112     111     114     116     112     111     114     115
     112     111     114     117     113     111     114     116
     113     111     114     115     113     111     114     117
     115     114     117     120     115     114     117     119
     115     114     117     118     116     114     117     120
     116     114     117     119     116     114     117     118
     121     123     125     126     121     123     125     131
     121     123     125     127     122     121     123     125
     122     121     123     124     123     125     131     132
     123     125     131     133     123     125     127     130
     123     125     127     129     123     125     127     128
     124     123     125     126     124     123     125     131
     124     123     125     127     125     131     133     135
     125     131     133     134     126     125     131     132
     126     125     131     133     126     125     127     130
     126     125     127     129     126     125     127     128
     127     125     131     132     127     125     131     133
     131     125     127     128     131     125     127     129
     131     125     127     130     131     133     135     136
     131     133     135     141     131     133     135     137
     132     131     133     135     132     131     133     134
     133     135     141     142     133     135     141     143
     133     135     137     140     133     135     137     139
     133     135     137     138     134     133     135     136
     134     133     135     141     134     133     135     137
     135     141     143     145     135     141     143     144
     136     135     141     142     136     135     141     143
     136     135     137     140     136     135     137     139
     136     135     137     138     137     135     141     142
     137     135     141     143     141     135     137     138
     141     135     137     139     141     135     137     140
     141     143     145     146     141     143     145     163
     141     143     145     147     142     141     143     145
     142     141     143     144     143     145     163     164
     143     145     163     165     143     145     147     149
     143     145     147     148     143     145     147     150
     144     143     145     146     144     143     145     163
     144     143     145     147     145     163     165     167
     145     163     165     166     145     147     150     152
     145     147     150     151     145     147     150     153
     146     145     163     164     146     145     163     165
     146     145     147     149     146     145     147     148
     146     145     147     150     147     150     153     155
     147     150     153     154     147     150     153     156
     147     145     163     164     147     145     163     165
     148     147     150     152     148     147     150     151
     148     147     150     153     163     145     147     148
     149     147     150     152     149     147     150     151
     149     147     150     153     163     145     147     149
     150     153     156     158     150     153     156     157
     150     153     156     159     163     145     147     150
     151     150     153     155     151     150     153     154
     151     150     153     156     152     150     153     155
     152     150     153     154     152     150     153     156
     153     156     159     162     153     156     159     161
     153     156     159     160     154     153     156     158
     154     153     156     157     154     153     156     159
     155     153     156     158     155     153     156     157
     155     153     156     159     157     156     159     162
     157     156     159     161     157     156     159     160
     158     156     159     162     158     156     159     161
     158     156     159     160     163     165     167     168
     163     165     167     185     163     165     167     169
     164     163     165     167     164     163     165     166
     165     167     185     186     165     167     185     187
     165     167     169     171     165     167     169     170
     165     167     169     172     166     165     167     168
     166     165     167     185     166     165     167     169
     167     185     187     189     167     185     187     188
     167     169     172     174     167     169     172     173
     167     169     172     175     168     167     185     186
     168     167     185     187     168     167     169     171
     168     167     169     170     168     167     169     172
     169     172     175     177     169     172     175     176
     169     172     175     178     169     167     185     186
     169     167     185     187     170     169     172     174
     170     169     172     173     170     169     172     175
     185     167     169     170     171     169     172     174
     171     169     172     173     171     169     172     175
     185     167     169     171     172     175     178     180
     172     175     178     179     172     175     178     181
     185     167     169     172     173     172     175     177
     173     172     175     176     173     172     175     178
     174     172     175     177     174     172     175     176
     174     172     175     178     175     178     181     184
     175     178     181     183     175     178     181     182
     176     175     178     180     176     175     178     179
     176     175     178     181     177     175     178     180
     177     175     178     179     177     175     178     181
     179     178     181     184     179     178     181     183
     179     178     181     182     180     178     181     184
     180     178     181     183     180     178     181     182
     185     187     189     190     185     187     189     204
     185     187     189     191     186     185     187     189
     186     185     187     188     187     189     204     205
     187     189     204     206     187     189     191     193
     187     189     191     192     187     189     191     194
     188     187     189     190     188     187     189     204
     188     187     189     191     189     204     206     208
     189     204     206     207     189     191     194     195
     189     191     194     200     189     191     194     196
     190     189     204     205     190     189     204     206
     190     189     191     193     190     189     191     192
     190     189     191     194     191     194     200     203
     191     194     200     202     191     194     200     201
     191     194     196     199     191     194     196     198
     191     194     196     197     191     189     204     205
     191     189     204     206     192     191     194     195
     192     191     194     200     192     191     194     196
     204     189     191     192     193     191     194     195
     193     191     194     200     193     191     194     196
     204     189     191     193     204     189     191     194
     195     194     200     203     195     194     200     202
     195     194     200     201     195     194     196     199
     195     194     196     198     195     194     196     197
     196     194     200     203     196     194     200     202
     196     194     200     201     200     194     196     197
     200     194     196     198     200     194     196     199
     204     206     208     209     204     206     208     214
     204     206     208     210     205     204     206     208
     205     204     206     207     206     208     214     215
     206     208     214     216     206     208     210     213
     206     208     210     212     206     208     210     211
     207     206     208     209     207     206     208     214
     207     206     208     210     208     214     216     218
     208     214     216     217     209     208     214     215
     209     208     214     216     209     208     210     213
     209     208     210     212     209     208     210     211
     210     208     214     215     210     208     214     216
     214     208     210     211     214     208     210     212
     214     208     210     213     214     216     218     219
     214     216     218     229     214     216     218     220
     215     214     216     218     215     214     216     217
     216     218     229     230     216     218     229     231
     216     218     220     222     216     218     220     221
     216     218     220     223     217     216     218     219
     217     216     218     229     217     216     218     220
     218     229     231     233     218     229     231     232
     218     220     223     225     218     220     223     224
     218     220     223     226     219     218     229     230
     219     218     229     231     219     218     220     222
     219     218     220     221     219     218     220     223
     220     223     226     227     220     223     226     228
     220     218     229     230     220     218     229     231
     221     220     223     225     221     220     223     224
     221     220     223     226     229     218     220     221
     222     220     223     225     222     220     223     224
     222     220     223     226     229     218     220     222
     229     218     220     223     224     223     226     227
     224     223     226     228     225     223     226     227
     225     223     226     228     229     231     233     234
     229     231     233     240     229     231     233     235
     230     229     231     233     230     229     231     232
     231     233     240     241     231     233     240     242
     231     233     235     237     231     233     235     236
     231     233     235     238     232     231     233     234
     232     231     233     240     232     231     233     235
     233     235     238     239     234     233     240     241
     234     233     240     242     234     233     235     237
     234     233     235     236     234     233     235     238
     235     233     240     241     235     233     240     242
     236     235     238     239     240     233     235     236
     237     235     238     239     240     233     235     237
     240     233     235     238   14810   14814   14817   14818
   14810   14814   14817   14848   14848   14853   14856   14810
   14855   14853   14856   14810   14854   14853   14856   14810
   14811   14810   14814   14817   14811   14810   14814   14816
   14811   14810   14814   14815   14811   14810   14856   14853
   14811   14810   14856   14858   14811   14810   14856   14857
   14811   14810   14812   14813   14812   14810   14814   14817
   14812   14810   14814   14816   14812   14810   14814   14815
   14812   14810   14856   14853   14812   14810   14856   14858
   14812   14810   14856   14857   14814   14810   14812   14813
   14856   14810   14812   14813   14814   14817   14818   14820
   14814   14817   14818   14819   14814   14817   14848   14846
   14814   14817   14848   14849   14814   14817   14848   14853
   14814   14810   14856   14853   14814   14810   14856   14858
   14814   14810   14856   14857   14815   14814   14817   14818
   14815   14814   14817   14848   14856   14810   14814   14815
   14816   14814   14817   14818   14816   14814   14817   14848
   14856   14810   14814   14816   14817   14818   14820   14823
   14817   14818   14820   14822   14817   14818   14820   14821
   14843   14846   14848   14817   14847   14846   14848   14817
   14823   14846   14848   14817   14817   14848   14849   14852
   14817   14848   14849   14851   14817   14848   14849   14850
   14817   14848   14853   14855   14817   14848   14853   14854
   14817   14848   14853   14856   14856   14810   14814   14817
   14818   14820   14823   14825   14818   14820   14823   14846
   14818   14820   14823   14824   14818   14817   14848   14846
   14818   14817   14848   14849   14818   14817   14848   14853
   14819   14818   14820   14823   14819   14818   14820   14822
   14819   14818   14820   14821   14848   14817   14818   14819
   14820   14823   14825   14827   14820   14823   14825   14835
   14820   14823   14825   14826   14820   14823   14846   14843
   14820   14823   14846   14848   14820   14823   14846   14847
   14848   14817   14818   14820   14821   14820   14823   14825
   14821   14820   14823   14846   14821   14820   14823   14824
   14822   14820   14823   14825   14822   14820   14823   14846
   14822   14820   14823   14824   14823   14825   14827   14830
   14823   14825   14827   14829   14823   14825   14827   14828
   14823   14825   14835   14833   14823   14825   14835   14836
   14823   14825   14835   14840   14845   14843   14846   14823
   14844   14843   14846   14823   14840   14843   14846   14823
   14823   14846   14848   14849   14823   14846   14848   14853
   14824   14823   14825   14827   14824   14823   14825   14835
   14824   14823   14825   14826   14824   14823   14846   14843
   14824   14823   14846   14848   14824   14823   14846   14847
   14825   14827   14830   14833   14825   14827   14830   14832
   14825   14827   14830   14831   14859   14833   14835   14825
   14834   14833   14835   14825   14830   14833   14835   14825
   14825   14835   14836   14839   14825   14835   14836   14838
   14825   14835   14836   14837   14825   14835   14840   14843
   14825   14835   14840   14842   14825   14835   14840   14841
   14825   14823   14846   14843   14825   14823   14846   14848
   14825   14823   14846   14847   14826   14825   14827   14830
   14826   14825   14827   14829   14826   14825   14827   14828
   14826   14825   14835   14833   14826   14825   14835   14836
   14826   14825   14835   14840   14846   14823   14825   14826
   14827   14830   14833   14859   14827   14830   14833   14835
   14827   14830   14833   14834   14827   14825   14835   14833
   14827   14825   14835   14836   14827   14825   14835   14840
   14846   14823   14825   14827   14828   14827   14830   14833
   14828   14827   14830   14832   14828   14827   14830   14831
   14835   14825   14827   14828   14829   14827   14830   14833
   14829   14827   14830   14832   14829   14827   14830   14831
   14835   14825   14827   14829   14830   14833   14859   14865
   14830   14833   14859   14861   14830   14833   14859   14860
   14830   14833   14835   14836   14830   14833   14835   14840
   14835   14825   14827   14830   14831   14830   14833   14859
   14831   14830   14833   14835   14831   14830   14833   14834
   14832   14830   14833   14859   14832   14830   14833   14835
   14832   14830   14833   14834   14833   14859   14865   14868
   14833   14859   14865   14867   14833   14859   14865   14866
   14833   14859   14861   14864   14833   14859   14861   14863
   14833   14859   14861   14862   14833   14835   14836   14839
   14833   14835   14836   14838   14833   14835   14836   14837
   14833   14835   14840   14843   14833   14835   14840   14842
   14833   14835   14840   14841   14834   14833   14859   14865
   14834   14833   14859   14861   14834   14833   14859   14860
   14834   14833   14835   14836   14834   14833   14835   14840
   14835   14833   14859   14865   14835   14833   14859   14861
   14835   14833   14859   14860   14835   14840   14843   14846
   14835   14840   14843   14845   14835   14840   14843   14844
   14846   14823   14825   14835   14859   14833   14835   14836
   14836   14835   14840   14843   14836   14835   14840   14842
   14836   14835   14840   14841   14840   14835   14836   14837
   14840   14835   14836   14838   14840   14835   14836   14839
   14840   14843   14846   14848   14840   14843   14846   14847
   14859   14833   14835   14840   14841   14840   14843   14846
   14841   14840   14843   14845   14841   14840   14843   14844
   14842   14840   14843   14846   14842   14840   14843   14845
   14842   14840   14843   14844   14843   14846   14848   14849
   14843   14846   14848   14853   14844   14843   14846   14848
   14844   14843   14846   14847   14845   14843   14846   14848
   14845   14843   14846   14847   14846   14848   14849   14852
   14846   14848   14849   14851   14846   14848   14849   14850
   14846   14848   14853   14855   14846   14848   14853   14854
   14846   14848   14853   14856   14847   14846   14848   14849
   14847   14846   14848   14853   14848   14853   14856   14858
   14848   14853   14856   14857   14849   14848   14853   14855
   14849   14848   14853   14854   14849   14848   14853   14856
   14853   14848   14849   14850   14853   14848   14849   14851
   14853   14848   14849   14852   14854   14853   14856   14858
   14854   14853   14856   14857   14855   14853   14856   14858
   14855   14853   14856   14857   14859   14865   14868   14871
   14859   14865   14868   14870   14859   14865   14868   14869
   14860   14859   14865   14868   14860   14859   14865   14867
   14860   14859   14865   14866   14860   14859   14861   14864
   14860   14859   14861   14863   14860   14859   14861   14862
   14861   14859   14865   14868   14861   14859   14865   14867
   14861   14859   14865   14866   14865   14859   14861   14862
   14865   14859   14861   14863   14865   14859   14861   14864
   14865   14868   14871   14874   14865   14868   14871   14873
   14865   14868   14871   14872   14866   14865   14868   14871
   14866   14865   14868   14870   14866   14865   14868   14869
   14867   14865   14868   14871   14867   14865   14868   14870
   14867   14865   14868   14869   14868   14871   14874   14880
   14868   14871   14874   14876   14868   14871   14874   14875
   14869   14868   14871   14874   14869   14868   14871   14873
   14869   14868   14871   14872   14870   14868   14871   14874
   14870   14868   14871   14873   14870   14868   14871   14872
   14871   14874   14880   14883   14871   14874   14880   14882
   14871   14874   14880   14881   14871   14874   14876   14879
   14871   14874   14876   14878   14871   14874   14876   14877
   14872   14871   14874   14880   14872   14871   14874   14876
   14872   14871   14874   14875   14873   14871   14874   14880
   14873   14871   14874   14876   14873   14871   14874   14875
   14875   14874   14880   14883   14875   14874   14880   14882
   14875   14874   14880   14881   14875   14874   14876   14879
   14875   14874   14876   14878   14875   14874   14876   14877
   14876   14874   14880   14883   14876   14874   14880   14882
   14876   14874   14880   14881   14880   14874   14876   14877
   14880   14874   14876   14878   14880   14874   14876   14879
   14884   14888   14891   14892   14884   14888   14891   14922
   14922   14927   14930   14884   14929   14927   14930   14884
   14928   14927   14930   14884   14885   14884   14888   14891
   14885   14884   14888   14890   14885   14884   14888   14889
   14885   14884   14930   14927   14885   14884   14930   14932
   14885   14884   14930   14931   14885   14884   14886   14887
   14886   14884   14888   14891   14886   14884   14888   14890
   14886   14884   14888   14889   14886   14884   14930   14927
   14886   14884   14930   14932   14886   14884   14930   14931
   14888   14884   14886   14887   14930   14884   14886   14887
   14888   14891   14892   14894   14888   14891   14892   14893
   14888   14891   14922   14920   14888   14891   14922   14923
   14888   14891   14922   14927   14888   14884   14930   14927
   14888   14884   14930   14932   14888   14884   14930   14931
   14889   14888   14891   14892   14889   14888   14891   14922
   14930   14884   14888   14889   14890   14888   14891   14892
   14890   14888   14891   14922   14930   14884   14888   14890
   14891   14892   14894   14897   14891   14892   14894   14896
   14891   14892   14894   14895   14917   14920   14922   14891
   14921   14920   14922   14891   14897   14920   14922   14891
   14891   14922   14923   14926   14891   14922   14923   14925
   14891   14922   14923   14924   14891   14922   14927   14929
   14891   14922   14927   14928   14891   14922   14927   14930
   14930   14884   14888   14891   14892   14894   14897   14899
   14892   14894   14897   14920   14892   14894   14897   14898
   14892   14891   14922   14920   14892   14891   14922   14923
   14892   14891   14922   14927   14893   14892   14894   14897
   14893   14892   14894   14896   14893   14892   14894   14895
   14922   14891   14892   14893   14894   14897   14899   14901
   14894   14897   14899   14909   14894   14897   14899   14900
   14894   14897   14920   14917   14894   14897   14920   14922
   14894   14897   14920   14921   14922   14891   14892   14894
   14895   14894   14897   14899   14895   14894   14897   14920
   14895   14894   14897   14898   14896   14894   14897   14899
   14896   14894   14897   14920   14896   14894   14897   14898
   14897   14899   14901   14904   14897   14899   14901   14903
   14897   14899   14901   14902   14897   14899   14909   14907
   14897   14899   14909   14910   14897   14899   14909   14914
   14919   14917   14920   14897   14918   14917   14920   14897
   14914   14917   14920   14897   14897   14920   14922   14923
   14897   14920   14922   14927   14898   14897   14899   14901
   14898   14897   14899   14909   14898   14897   14899   14900
   14898   14897   14920   14917   14898   14897   14920   14922
   14898   14897   14920   14921   14899   14901   14904   14907
   14899   14901   14904   14906   14899   14901   14904   14905
   14933   14907   14909   14899   14908   14907   14909   14899
   14904   14907   14909   14899   14899   14909   14910   14913
   14899   14909   14910   14912   14899   14909   14910   14911
   14899   14909   14914   14917   14899   14909   14914   14916
   14899   14909   14914   14915   14899   14897   14920   14917
   14899   14897   14920   14922   14899   14897   14920   14921
   14900   14899   14901   14904   14900   14899   14901   14903
   14900   14899   14901   14902   14900   14899   14909   14907
   14900   14899   14909   14910   14900   14899   14909   14914
   14920   14897   14899   14900   14901   14904   14907   14933
   14901   14904   14907   14909   14901   14904   14907   14908
   14901   14899   14909   14907   14901   14899   14909   14910
   14901   14899   14909   14914   14920   14897   14899   14901
   14902   14901   14904   14907   14902   14901   14904   14906
   14902   14901   14904   14905   14909   14899   14901   14902
   14903   14901   14904   14907   14903   14901   14904   14906
   14903   14901   14904   14905   14909   14899   14901   14903
   14904   14907   14933   14939   14904   14907   14933   14935
   14904   14907   14933   14934   14904   14907   14909   14910
   14904   14907   14909   14914   14909   14899   14901   14904
   14905   14904   14907   14933   14905   14904   14907   14909
   14905   14904   14907   14908   14906   14904   14907   14933
   14906   14904   14907   14909   14906   14904   14907   14908
   14907   14933   14939   14942   14907   14933   14939   14941
   14907   14933   14939   14940   14907   14933   14935   14938
   14907   14933   14935   14937   14907   14933   14935   14936
   14907   14909   14910   14913   14907   14909   14910   14912
   14907   14909   14910   14911   14907   14909   14914   14917
   14907   14909   14914   14916   14907   14909   14914   14915
   14908   14907   14933   14939   14908   14907   14933   14935
   14908   14907   14933   14934   14908   14907   14909   14910
   14908   14907   14909   14914   14909   14907   14933   14939
   14909   14907   14933   14935   14909   14907   14933   14934
   14909   14914   14917   14920   14909   14914   14917   14919
   14909   14914   14917   14918   14920   14897   14899   14909
   14933   14907   14909   14910   14910   14909   14914   14917
   14910   14909   14914   14916   14910   14909   14914   14915
   14914   14909   14910   14911   14914   14909   14910   14912
   14914   14909   14910   14913   14914   14917   14920   14922
   14914   14917   14920   14921   14933   14907   14909   14914
   14915   14914   14917   14920   14915   14914   14917   14919
   14915   14914   14917   14918   14916   14914   14917   14920
   14916   14914   14917   14919   14916   14914   14917   14918
   14917   14920   14922   14923   14917   14920   14922   14927
   14918   14917   14920   14922   14918   14917   14920   14921
   14919   14917   14920   14922   14919   14917   14920   14921
   14920   14922   14923   14926   14920   14922   14923   14925
   14920   14922   14923   14924   14920   14922   14927   14929
   14920   14922   14927   14928   14920   14922   14927   14930
   14921   14920   14922   14923   14921   14920   14922   14927
   14922   14927   14930   14932   14922   14927   14930   14931
   14923   14922   14927   14929   14923   14922   14927   14928
   14923   14922   14927   14930   14927   14922   14923   14924
   14927   14922   14923   14925   14927   14922   14923   14926
   14928   14927   14930   14932   14928   14927   14930   14931
   14929   14927   14930   14932   14929   14927   14930   14931
   14933   14939   14942   14945   14933   14939   14942   14944
   14933   14939   14942   14943   14934   14933   14939   14942
   14934   14933   14939   14941   14934   14933   14939   14940
   14934   14933   14935   14938   14934   14933   14935   14937
   14934   14933   14935   14936   14935   14933   14939   14942
   14935   14933   14939   14941   14935   14933   14939   14940
   14939   14933   14935   14936   14939   14933   14935   14937
   14939   14933   14935   14938   14939   14942   14945   14948
   14939   14942   14945   14947   14939   14942   14945   14946
   14940   14939   14942   14945   14940   14939   14942   14944
   14940   14939   14942   14943   14941   14939   14942   14945
   14941   14939   14942   14944   14941   14939   14942   14943
   14942   14945   14948   14954   14942   14945   14948   14950
   14942   14945   14948   14949   14943   14942   14945   14948
   14943   14942   14945   14947   14943   14942   14945   14946
   14944   14942   14945   14948   14944   14942   14945   14947
   14944   14942   14945   14946   14945   14948   14954   14957
   14945   14948   14954   14956   14945   14948   14954   14955
   14945   14948   14950   14953   14945   14948   14950   14952
   14945   14948   14950   14951   14946   14945   14948   14954
   14946   14945   14948   14950   14946   14945   14948   14949
   14947   14945   14948   14954   14947   14945   14948   14950
   14947   14945   14948   14949   14949   14948   14954   14957
   14949   14948   14954   14956   14949   14948   14954   14955
   14949   14948   14950   14953   14949   14948   14950   14952
   14949   14948   14950   14951   14950   14948   14954   14957
   14950   14948   14954   14956   14950   14948   14954   14955
   14954   14948   14950   14951   14954   14948   14950   14952
   14954   14948   14950   14953   14958   14962   14965   14966
   14958   14962   14965   14996   14996   15001   15004   14958
   15003   15001   15004   14958   15002   15001   15004   14958
   14959   14958   14962   14965   14959   14958   14962   14964
   14959   14958   14962   14963   14959   14958   15004   15001
   14959   14958   15004   15006   14959   14958   15004   15005
   14959   14958   14960   14961   14960   14958   14962   14965
   14960   14958   14962   14964   14960   14958   14962   14963
   14960   14958   15004   15001   14960   14958   15004   15006
   14960   14958   15004   15005   14962   14958   14960   14961
   15004   14958   14960   14961   14962   14965   14966   14968
   14962   14965   14966   14967   14962   14965   14996   14994
   14962   14965   14996   14997   14962   14965   14996   15001
   14962   14958   15004   15001   14962   14958   15004   15006
   14962   14958   15004   15005   14963   14962   14965   14966
   14963   14962   14965   14996   15004   14958   14962   14963
   14964   14962   14965   14966   14964   14962   14965   14996
   15004   14958   14962   14964   14965   14966   14968   14971
   14965   14966   14968   14970   14965   14966   14968   14969
   14991   14994   14996   14965   14995   14994   14996   14965
   14971   14994   14996   14965   14965   14996   14997   15000
   14965   14996   14997   14999   14965   14996   14997   14998
   14965   14996   15001   15003   14965   14996   15001   15002
   14965   14996   15001   15004   15004   14958   14962   14965
   14966   14968   14971   14973   14966   14968   14971   14994
   14966   14968   14971   14972   14966   14965   14996   14994
   14966   14965   14996   14997   14966   14965   14996   15001
   14967   14966   14968   14971   14967   14966   14968   14970
   14967   14966   14968   14969   14996   14965   14966   14967
   14968   14971   14973   14975   14968   14971   14973   14983
   14968   14971   14973   14974   14968   14971   14994   14991
   14968   14971   14994   14996   14968   14971   14994   14995
   14996   14965   14966   14968   14969   14968   14971   14973
   14969   14968   14971   14994   14969   14968   14971   14972
   14970   14968   14971   14973   14970   14968   14971   14994
   14970   14968   14971   14972   14971   14973   14975   14978
   14971   14973   14975   14977   14971   14973   14975   14976
   14971   14973   14983   14981   14971   14973   14983   14984
   14971   14973   14983   14988   14993   14991   14994   14971
   14992   14991   14994   14971   14988   14991   14994   14971
   14971   14994   14996   14997   14971   14994   14996   15001
   14972   14971   14973   14975   14972   14971   14973   14983
   14972   14971   14973   14974   14972   14971   14994   14991
   14972   14971   14994   14996   14972   14971   14994   14995
   14973   14975   14978   14981   14973   14975   14978   14980
   14973   14975   14978   14979   15007   14981   14983   14973
   14982   14981   14983   14973   14978   14981   14983   14973
   14973   14983   14984   14987   14973   14983   14984   14986
   14973   14983   14984   14985   14973   14983   14988   14991
   14973   14983   14988   14990   14973   14983   14988   14989
   14973   14971   14994   14991   14973   14971   14994   14996
   14973   14971   14994   14995   14974   14973   14975   14978
   14974   14973   14975   14977   14974   14973   14975   14976
   14974   14973   14983   14981   14974   14973   14983   14984
   14974   14973   14983   14988   14994   14971   14973   14974
   14975   14978   14981   15007   14975   14978   14981   14983
   14975   14978   14981   14982   14975   14973   14983   14981
   14975   14973   14983   14984   14975   14973   14983   14988
   14994   14971   14973   14975   14976   14975   14978   14981
   14976   14975   14978   14980   14976   14975   14978   14979
   14983   14973   14975   14976   14977   14975   14978   14981
   14977   14975   14978   14980   14977   14975   14978   14979
   14983   14973   14975   14977   14978   14981   15007   15013
   14978   14981   15007   15009   14978   14981   15007   15008
   14978   14981   14983   14984   14978   14981   14983   14988
   14983   14973   14975   14978   14979   14978   14981   15007
   14979   14978   14981   14983   14979   14978   14981   14982
   14980   14978   14981   15007   14980   14978   14981   14983
   14980   14978   14981   14982   14981   15007   15013   15016
   14981   15007   15013   15015   14981   15007   15013   15014
   14981   15007   15009   15012   14981   15007   15009   15011
   14981   15007   15009   15010   14981   14983   14984   14987
   14981   14983   14984   14986   14981   14983   14984   14985
   14981   14983   14988   14991   14981   14983   14988   14990
   14981   14983   14988   14989   14982   14981   15007   15013
   14982   14981   15007   15009   14982   14981   15007   15008
   14982   14981   14983   14984   14982   14981   14983   14988
   14983   14981   15007   15013   14983   14981   15007   15009
   14983   14981   15007   15008   14983   14988   14991   14994
   14983   14988   14991   14993   14983   14988   14991   14992
   14994   14971   14973   14983   15007   14981   14983   14984
   14984   14983   14988   14991   14984   14983   14988   14990
   14984   14983   14988   14989   14988   14983   14984   14985
   14988   14983   14984   14986   14988   14983   14984   14987
   14988   14991   14994   14996   14988   14991   14994   14995
   15007   14981   14983   14988   14989   14988   14991   14994
   14989   14988   14991   14993   14989   14988   14991   14992
   14990   14988   14991   14994   14990   14988   14991   14993
   14990   14988   14991   14992   14991   14994   14996   14997
   14991   14994   14996   15001   14992   14991   14994   14996
   14992   14991   14994   14995   14993   14991   14994   14996
   14993   14991   14994   14995   14994   14996   14997   15000
   14994   14996   14997   14999   14994   14996   14997   14998
   14994   14996   15001   15003   14994   14996   15001   15002
   14994   14996   15001   15004   14995   14994   14996   14997
   14995   14994   14996   15001   14996   15001   15004   15006
   14996   15001   15004   15005   14997   14996   15001   15003
   14997   14996   15001   15002   14997   14996   15001   15004
   15001   14996   14997   14998   15001   14996   14997   14999
   15001   14996   14997   15000   15002   15001   15004   15006
   15002   15001   15004   15005   15003   15001   15004   15006
   15003   15001   15004   15005   15007   15013   15016   15019
   15007   15013   15016   15018   15007   15013   15016   15017
   15008   15007   15013   15016   15008   15007   15013   15015
   15008   15007   15013   15014   15008   15007   15009   15012
   15008   15007   15009   15011   15008   15007   15009   15010
   15009   15007   15013   15016   15009   15007   15013   15015
   15009   15007   15013   15014   15013   15007   15009   15010
   15013   15007   15009   15011   15013   15007   15009   15012
   15013   15016   15019   15022   15013   15016   15019   15021
   15013   15016   15019   15020   15014   15013   15016   15019
   15014   15013   15016   15018   15014   15013   15016   15017
   15015   15013   15016   15019   15015   15013   15016   15018
   15015   15013   15016   15017   15016   15019   15022   15028
   15016   15019   15022   15024   15016   15019   15022   15023
   15017   15016   15019   15022   15017   15016   15019   15021
   15017   15016   15019   15020   15018   15016   15019   15022
   15018   15016   15019   15021   15018   15016   15019   15020
   15019   15022   15028   15031   15019   15022   15028   15030
   15019   15022   15028   15029   15019   15022   15024   15027
   15019   15022   15024   15026   15019   15022   15024   15025
   15020   15019   15022   15028   15020   15019   15022   15024
   15020   15019   15022   15023   15021   15019   15022   15028
   15021   15019   15022   15024   15021   15019   15022   15023
   15023   15022   15028   15031   15023   15022   15028   15030
   15023   15022   15028   15029   15023   15022   15024   15027
   15023   15022   15024   15026   15023   15022   15024   15025
   15024   15022   15028   15031   15024   15022   15028   15030
   15024   15022   15028   15029   15028   15022   15024   15025
   15028   15022   15024   15026   15028   15022   15024   15027
   15032   15036   15039   15040   15032   15036   15039   15070
   15070   15075   15078   15032   15077   15075   15078   15032
   15076   15075   15078   15032   15033   15032   15036   15039
   15033   15032   15036   15038   15033   15032   15036   15037
   15033   15032   15078   15075   15033   15032   15078   15080
   15033   15032   15078   15079   15033   15032   15034   15035
   15034   15032   15036   15039   15034   15032   15036   15038
   15034   15032   15036   15037   15034   15032   15078   15075
   15034   15032   15078   15080   15034   15032   15078   15079
   15036   15032   15034   15035   15078   15032   15034   15035
   15036   15039   15040   15042   15036   15039   15040   15041
   15036   15039   15070   15068   15036   15039   15070   15071
   15036   15039   15070   15075   15036   15032   15078   15075
   15036   15032   15078   15080   15036   15032   15078   15079
   15037   15036   15039   15040   15037   15036   15039   15070
   15078   15032   15036   15037   15038   15036   15039   15040
   15038   15036   15039   15070   15078   15032   15036   15038
   15039   15040   15042   15045   15039   15040   15042   15044
   15039   15040   15042   15043   15065   15068   15070   15039
   15069   15068   15070   15039   15045   15068   15070   15039
   15039   15070   15071   15074   15039   15070   15071   15073
   15039   15070   15071   15072   15039   15070   15075   15077
   15039   15070   15075   15076   15039   15070   15075   15078
   15078   15032   15036   15039   15040   15042   15045   15047
   15040   15042   15045   15068   15040   15042   15045   15046
   15040   15039   15070   15068   15040   15039   15070   15071
   15040   15039   15070   15075   15041   15040   15042   15045
   15041   15040   15042   15044   15041   15040   15042   15043
   15070   15039   15040   15041   15042   15045   15047   15049
   15042   15045   15047   15057   15042   15045   15047   15048
   15042   15045   15068   15065   15042   15045   15068   15070
   15042   15045   15068   15069   15070   15039   15040   15042
   15043   15042   15045   15047   15043   15042   15045   15068
   15043   15042   15045   15046   15044   15042   15045   15047
   15044   15042   15045   15068   15044   15042   15045   15046
   15045   15047   15049   15052   15045   15047   15049   15051
   15045   15047   15049   15050   15045   15047   15057   15055
   15045   15047   15057   15058   15045   15047   15057   15062
   15067   15065   15068   15045   15066   15065   15068   15045
   15062   15065   15068   15045   15045   15068   15070   15071
   15045   15068   15070   15075   15046   15045   15047   15049
   15046   15045   15047   15057   15046   15045   15047   15048
   15046   15045   15068   15065   15046   15045   15068   15070
   15046   15045   15068   15069   15047   15049   15052   15055
   15047   15049   15052   15054   15047   15049   15052   15053
   15081   15055   15057   15047   15056   15055   15057   15047
   15052   15055   15057   15047   15047   15057   15058   15061
   15047   15057   15058   15060   15047   15057   15058   15059
   15047   15057   15062   15065   15047   15057   15062   15064
   15047   15057   15062   15063   15047   15045   15068   15065
   15047   15045   15068   15070   15047   15045   15068   15069
   15048   15047   15049   15052   15048   15047   15049   15051
   15048   15047   15049   15050   15048   15047   15057   15055
   15048   15047   15057   15058   15048   15047   15057   15062
   15068   15045   15047   15048   15049   15052   15055   15081
   15049   15052   15055   15057   15049   15052   15055   15056
   15049   15047   15057   15055   15049   15047   15057   15058
   15049   15047   15057   15062   15068   15045   15047   15049
   15050   15049   15052   15055   15050   15049   15052   15054
   15050   15049   15052   15053   15057   15047   15049   15050
   15051   15049   15052   15055   15051   15049   15052   15054
   15051   15049   15052   15053   15057   15047   15049   15051
   15052   15055   15081   15087   15052   15055   15081   15083
   15052   15055   15081   15082   15052   15055   15057   15058
   15052   15055   15057   15062   15057   15047   15049   15052
   15053   15052   15055   15081   15053   15052   15055   15057
   15053   15052   15055   15056   15054   15052   15055   15081
   15054   15052   15055   15057   15054   15052   15055   15056
   15055   15081   15087   15090   15055   15081   15087   15089
   15055   15081   15087   15088   15055   15081   15083   15086
   15055   15081   15083   15085   15055   15081   15083   15084
   15055   15057   15058   15061   15055   15057   15058   15060
   15055   15057   15058   15059   15055   15057   15062   15065
   15055   15057   15062   15064   15055   15057   15062   15063
   15056   15055   15081   15087   15056   15055   15081   15083
   15056   15055   15081   15082   15056   15055   15057   15058
   15056   15055   15057   15062   15057   15055   15081   15087
   15057   15055   15081   15083   15057   15055   15081   15082
   15057   15062   15065   15068   15057   15062   15065   15067
   15057   15062   15065   15066   15068   15045   15047   15057
   15081   15055   15057   15058   15058   15057   15062   15065
   15058   15057   15062   15064   15058   15057   15062   15063
   15062   15057   15058   15059   15062   15057   15058   15060
   15062   15057   15058   15061   15062   15065   15068   15070
   15062   15065   15068   15069   15081   15055   15057   15062
   15063   15062   15065   15068   15063   15062   15065   15067
   15063   15062   15065   15066   15064   15062   15065   15068
   15064   15062   15065   15067   15064   15062   15065   15066
   15065   15068   15070   15071   15065   15068   15070   15075
   15066   15065   15068   15070   15066   15065   15068   15069
   15067   15065   15068   15070   15067   15065   15068   15069
   15068   15070   15071   15074   15068   15070   15071   15073
   15068   15070   15071   15072   15068   15070   15075   15077
   15068   15070   15075   15076   15068   15070   15075   15078
   15069   15068   15070   15071   15069   15068   15070   15075
   15070   15075   15078   15080   15070   15075   15078   15079
   15071   15070   15075   15077   15071   15070   15075   15076
   15071   15070   15075   15078   15075   15070   15071   15072
   15075   15070   15071   15073   15075   15070   15071   15074
   15076   15075   15078   15080   15076   15075   15078   15079
   15077   15075   15078   15080   15077   15075   15078   15079
   15081   15087   15090   15093   15081   15087   15090   15092
   15081   15087   15090   15091   15082   15081   15087   15090
   15082   15081   15087   15089   15082   15081   15087   15088
   15082   15081   15083   15086   15082   15081   15083   15085
   15082   15081   15083   15084   15083   15081   15087   15090
   15083   15081   15087   15089   15083   15081   15087   15088
   15087   15081   15083   15084   15087   15081   15083   15085
   15087   15081   15083   15086   15087   15090   15093   15096
   15087   15090   15093   15095   15087   15090   15093   15094
   15088   15087   15090   15093   15088   15087   15090   15092
   15088   15087   15090   15091   15089   15087   15090   15093
   15089   15087   15090   15092   15089   15087   15090   15091
   15090   15093   15096   15102   15090   15093   15096   15098
   15090   15093   15096   15097   15091   15090   15093   15096
   15091   15090   15093   15095   15091   15090   15093   15094
   15092   15090   15093   15096   15092   15090   15093   15095
   15092   15090   15093   15094   15093   15096   15102   15105
   15093   15096   15102   15104   15093   15096   15102   15103
   15093   15096   15098   15101   15093   15096   15098   15100
   15093   15096   15098   15099   15094   15093   15096   15102
   15094   15093   15096   15098   15094   15093   15096   15097
   15095   15093   15096   15102   15095   15093   15096   15098
   15095   15093   15096   15097   15097   15096   15102   15105
   15097   15096   15102   15104   15097   15096   15102   15103
   15097   15096   15098   15101   15097   15096   15098   15100
   15097   15096   15098   15099   15098   15096   15102   15105
   15098   15096   15102   15104   15098   15096   15102   15103
   15102   15096   15098   15099   15102   15096   15098   15100
   15102   15096   15098   15101   15106   15110   15113   15114
   15106   15110   15113   15144   15144   15149   15152   15106
   15151   15149   15152   15106   15150   15149   15152   15106
   15107   15106   15110   15113   15107   15106   15110   15112
   15107   15106   15110   15111   15107   15106   15152   15149
   15107   15106   15152   15154   15107   15106   15152   15153
   15107   15106   15108   15109   15108   15106   15110   15113
   15108   15106   15110   15112   15108   15106   15110   15111
   15108   15106   15152   15149   15108   15106   15152   15154
   15108   15106   15152   15153   15110   15106   15108   15109
   15152   15106   15108   15109   15110   15113   15114   15116
   15110   15113   15114   15115   15110   15113   15144   15142
   15110   15113   15144   15145   15110   15113   15144   15149
   15110   15106   15152   15149   15110   15106   15152   15154
   15110   15106   15152   15153   15111   15110   15113   15114
   15111   15110   15113   15144   15152   15106   15110   15111
   15112   15110   15113   15114   15112   15110   15113   15144
   15152   15106   15110   15112   15113   15114   15116   15119
   15113   15114   15116   15118   15113   15114   15116   15117
   15139   15142   15144   15113   15143   15142   15144   15113
   15119   15142   15144   15113   15113   15144   15145   15148
   15113   15144   15145   15147   15113   15144   15145   15146
   15113   15144   15149   15151   15113   15144   15149   15150
   15113   15144   15149   15152   15152   15106   15110   15113
   15114   15116   15119   15121   15114   15116   15119   15142
   15114   15116   15119   15120   15114   15113   15144   15142
   15114   15113   15144   15145   15114   15113   15144   15149
   15115   15114   15116   15119   15115   15114   15116   15118
   15115   15114   15116   15117   15144   15113   15114   15115
   15116   15119   15121   15123   15116   15119   15121   15131
   15116   15119   15121   15122   15116   15119   15142   15139
   15116   15119   15142   15144   15116   15119   15142   15143
   15144   15113   15114   15116   15117   15116   15119   15121
   15117   15116   15119   15142   15117   15116   15119   15120
   15118   15116   15119   15121   15118   15116   15119   15142
   15118   15116   15119   15120   15119   15121   15123   15126
   15119   15121   15123   15125   15119   15121   15123   15124
   15119   15121   15131   15129   15119   15121   15131   15132
   15119   15121   15131   15136   15141   15139   15142   15119
   15140   15139   15142   15119   15136   15139   15142   15119
   15119   15142   15144   15145   15119   15142   15144   15149
   15120   15119   15121   15123   15120   15119   15121   15131
   15120   15119   15121   15122   15120   15119   15142   15139
   15120   15119   15142   15144   15120   15119   15142   15143
   15121   15123   15126   15129   15121   15123   15126   15128
   15121   15123   15126   15127   15155   15129   15131   15121
   15130   15129   15131   15121   15126   15129   15131   15121
   15121   15131   15132   15135   15121   15131   15132   15134
   15121   15131   15132   15133   15121   15131   15136   15139
   15121   15131   15136   15138   15121   15131   15136   15137
   15121   15119   15142   15139   15121   15119   15142   15144
   15121   15119   15142   15143   15122   15121   15123   15126
   15122   15121   15123   15125   15122   15121   15123   15124
   15122   15121   15131   15129   15122   15121   15131   15132
   15122   15121   15131   15136   15142   15119   15121   15122
   15123   15126   15129   15155   15123   15126   15129   15131
   15123   15126   15129   15130   15123   15121   15131   15129
   15123   15121   15131   15132   15123   15121   15131   15136
   15142   15119   15121   15123   15124   15123   15126   15129
   15124   15123   15126   15128   15124   15123   15126   15127
   15131   15121   15123   15124   15125   15123   15126   15129
   15125   15123   15126   15128   15125   15123   15126   15127
   15131   15121   15123   15125   15126   15129   15155   15161
   15126   15129   15155   15157   15126   15129   15155   15156
   15126   15129   15131   15132   15126   15129   15131   15136
   15131   15121   15123   15126   15127   15126   15129   15155
   15127   15126   15129   15131   15127   15126   15129   15130
   15128   15126   15129   15155   15128   15126   15129   15131
   15128   15126   15129   15130   15129   15155   15161   15164
   15129   15155   15161   15163   15129   15155   15161   15162
   15129   15155   15157   15160   15129   15155   15157   15159
   15129   15155   15157   15158   15129   15131   15132   15135
   15129   15131   15132   15134   15129   15131   15132   15133
   15129   15131   15136   15139   15129   15131   15136   15138
   15129   15131   15136   15137   15130   15129   15155   15161
   15130   15129   15155   15157   15130   15129   15155   15156
   15130   15129   15131   15132   15130   15129   15131   15136
   15131   15129   15155   15161   15131   15129   15155   15157
   15131   15129   15155   15156   15131   15136   15139   15142
   15131   15136   15139   15141   15131   15136   15139   15140
   15142   15119   15121   15131   15155   15129   15131   15132
   15132   15131   15136   15139   15132   15131   15136   15138
   15132   15131   15136   15137   15136   15131   15132   15133
   15136   15131   15132   15134   15136   15131   15132   15135
   15136   15139   15142   15144   15136   15139   15142   15143
   15155   15129   15131   15136   15137   15136   15139   15142
   15137   15136   15139   15141   15137   15136   15139   15140
   15138   15136   15139   15142   15138   15136   15139   15141
   15138   15136   15139   15140   15139   15142   15144   15145
   15139   15142   15144   15149   15140   15139   15142   15144
   15140   15139   15142   15143   15141   15139   15142   15144
   15141   15139   15142   15143   15142   15144   15145   15148
   15142   15144   15145   15147   15142   15144   15145   15146
   15142   15144   15149   15151   15142   15144   15149   15150
   15142   15144   15149   15152   15143   15142   15144   15145
   15143   15142   15144   15149   15144   15149   15152   15154
   15144   15149   15152   15153   15145   15144   15149   15151
   15145   15144   15149   15150   15145   15144   15149   15152
   15149   15144   15145   15146   15149   15144   15145   15147
   15149   15144   15145   15148   15150   15149   15152   15154
   15150   15149   15152   15153   15151   15149   15152   15154
   15151   15149   15152   15153   15155   15161   15164   15167
   15155   15161   15164   15166   15155   15161   15164   15165
   15156   15155   15161   15164   15156   15155   15161   15163
   15156   15155   15161   15162   15156   15155   15157   15160
   15156   15155   15157   15159   15156   15155   15157   15158
   15157   15155   15161   15164   15157   15155   15161   15163
   15157   15155   15161   15162   15161   15155   15157   15158
   15161   15155   15157   15159   15161   15155   15157   15160
   15161   15164   15167   15170   15161   15164   15167   15169
   15161   15164   15167   15168   15162   15161   15164   15167
   15162   15161   15164   15166   15162   15161   15164   15165
   15163   15161   15164   15167   15163   15161   15164   15166
   15163   15161   15164   15165   15164   15167   15170   15176
   15164   15167   15170   15172   15164   15167   15170   15171
   15165   15164   15167   15170   15165   15164   15167   15169
   15165   15164   15167   15168   15166   15164   15167   15170
   15166   15164   15167   15169   15166   15164   15167   15168
   15167   15170   15176   15179   15167   15170   15176   15178
   15167   15170   15176   15177   15167   15170   15172   15175
   15167   15170   15172   15174   15167   15170   15172   15173
   15168   15167   15170   15176   15168   15167   15170   15172
   15168   15167   15170   15171   15169   15167   15170   15176
   15169   15167   15170   15172   15169   15167   15170   15171
   15171   15170   15176   15179   15171   15170   15176   15178
   15171   15170   15176   15177   15171   15170   15172   15175
   15171   15170   15172   15174   15171   15170   15172   15173
   15172   15170   15176   15179   15172   15170   15176   15178
   15172   15170   15176   15177   15176   15170   15172   15173
   15176   15170   15172   15174   15176   15170   15172   15175
   15180   15184   15187   15188   15180   15184   15187   15218
   15218   15223   15226   15180   15225   15223   15226   15180
   15224   15223   15226   15180   15181   15180   15184   15187
   15181   15180   15184   15186   15181   15180   15184   15185
   15181   15180   15226   15223   15181   15180   15226   15228
   15181   15180   15226   15227   15181   15180   15182   15183
   15182   15180   15184   15187   15182   15180   15184   15186
   15182   15180   15184   15185   15182   15180   15226   15223
   15182   15180   15226   15228   15182   15180   15226   15227
   15184   15180   15182   15183   15226   15180   15182   15183
   15184   15187   15188   15190   15184   15187   15188   15189
   15184   15187   15218   15216   15184   15187   15218   15219
   15184   15187   15218   15223   15184   15180   15226   15223
   15184   15180   15226   15228   15184   15180   15226   15227
   15185   15184   15187   15188   15185   15184   15187   15218
   15226   15180   15184   15185   15186   15184   15187   15188
   15186   15184   15187   15218   15226   15180   15184   15186
   15187   15188   15190   15193   15187   15188   15190   15192
   15187   15188   15190   15191   15213   15216   15218   15187
   15217   15216   15218   15187   15193   15216   15218   15187
   15187   15218   15219   15222   15187   15218   15219   15221
   15187   15218   15219   15220   15187   15218   15223   15225
   15187   15218   15223   15224   15187   15218   15223   15226
   15226   15180   15184   15187   15188   15190   15193   15195
   15188   15190   15193   15216   15188   15190   15193   15194
   15188   15187   15218   15216   15188   15187   15218   15219
   15188   15187   15218   15223   15189   15188   15190   15193
   15189   15188   15190   15192   15189   15188   15190   15191
   15218   15187   15188   15189   15190   15193   15195   15197
   15190   15193   15195   15205   15190   15193   15195   15196
   15190   15193   15216   15213   15190   15193   15216   15218
   15190   15193   15216   15217   15218   15187   15188   15190
   15191   15190   15193   15195   15191   15190   15193   15216
   15191   15190   15193   15194   15192   15190   15193   15195
   15192   15190   15193   15216   15192   15190   15193   15194
   15193   15195   15197   15200   15193   15195   15197   15199
   15193   15195   15197   15198   15193   15195   15205   15203
   15193   15195   15205   15206   15193   15195   15205   15210
   15215   15213   15216   15193   15214   15213   15216   15193
   15210   15213   15216   15193   15193   15216   15218   15219
   15193   15216   15218   15223   15194   15193   15195   15197
   15194   15193   15195   15205   15194   15193   15195   15196
   15194   15193   15216   15213   15194   15193   15216   15218
   15194   15193   15216   15217   15195   15197   15200   15203
   15195   15197   15200   15202   15195   15197   15200   15201
   15229   15203   15205   15195   15204   15203   15205   15195
   15200   15203   15205   15195   15195   15205   15206   15209
   15195   15205   15206   15208   15195   15205   15206   15207
   15195   15205   15210   15213   15195   15205   15210   15212
   15195   15205   15210   15211   15195   15193   15216   15213
   15195   15193   15216   15218   15195   15193   15216   15217
   15196   15195   15197   15200   15196   15195   15197   15199
   15196   15195   15197   15198   15196   15195   15205   15203
   15196   15195   15205   15206   15196   15195   15205   15210
   15216   15193   15195   15196   15197   15200   15203   15229
   15197   15200   15203   15205   15197   15200   15203   15204
   15197   15195   15205   15203   15197   15195   15205   15206
   15197   15195   15205   15210   15216   15193   15195   15197
   15198   15197   15200   15203   15198   15197   15200   15202
   15198   15197   15200   15201   15205   15195   15197   15198
   15199   15197   15200   15203   15199   15197   15200   15202
   15199   15197   15200   15201   15205   15195   15197   15199
   15200   15203   15229   15235   15200   15203   15229   15231
   15200   15203   15229   15230   15200   15203   15205   15206
   15200   15203   15205   15210   15205   15195   15197   15200
   15201   15200   15203   15229   15201   15200   15203   15205
   15201   15200   15203   15204   15202   15200   15203   15229
   15202   15200   15203   15205   15202   15200   15203   15204
   15203   15229   15235   15238   15203   15229   15235   15237
   15203   15229   15235   15236   15203   15229   15231   15234
   15203   15229   15231   15233   15203   15229   15231   15232
   15203   15205   15206   15209   15203   15205   15206   15208
   15203   15205   15206   15207   15203   15205   15210   15213
   15203   15205   15210   15212   15203   15205   15210   15211
   15204   15203   15229   15235   15204   15203   15229   15231
   15204   15203   15229   15230   15204   15203   15205   15206
   15204   15203   15205   15210   15205   15203   15229   15235
   15205   15203   15229   15231   15205   15203   15229   15230
   15205   15210   15213   15216   15205   15210   15213   15215
   15205   15210   15213   15214   15216   15193   15195   15205
   15229   15203   15205   15206   15206   15205   15210   15213
   15206   15205   15210   15212   15206   15205   15210   15211
   15210   15205   15206   15207   15210   15205   15206   15208
   15210   15205   15206   15209   15210   15213   15216   15218
   15210   15213   15216   15217   15229   15203   15205   15210
   15211   15210   15213   15216   15211   15210   15213   15215
   15211   15210   15213   15214   15212   15210   15213   15216
   15212   15210   15213   15215   15212   15210   15213   15214
   15213   15216   15218   15219   15213   15216   15218   15223
   15214   15213   15216   15218   15214   15213   15216   15217
   15215   15213   15216   15218   15215   15213   15216   15217
   15216   15218   15219   15222   15216   15218   15219   15221
   15216   15218   15219   15220   15216   15218   15223   15225
   15216   15218   15223   15224   15216   15218   15223   15226
   15217   15216   15218   15219   15217   15216   15218   15223
   15218   15223   15226   15228   15218   15223   15226   15227
   15219   15218   15223   15225   15219   15218   15223   15224
   15219   15218   15223   15226   15223   15218   15219   15220
   15223   15218   15219   15221   15223   15218   15219   15222
   15224   15223   15226   15228   15224   15223   15226   15227
   15225   15223   15226   15228   15225   15223   15226   15227
   15229   15235   15238   15241   15229   15235   15238   15240
   15229   15235   15238   15239   15230   15229   15235   15238
   15230   15229   15235   15237   15230   15229   15235   15236
   15230   15229   15231   15234   15230   15229   15231   15233
   15230   15229   15231   15232   15231   15229   15235   15238
   15231   15229   15235   15237   15231   15229   15235   15236
   15235   15229   15231   15232   15235   15229   15231   15233
   15235   15229   15231   15234   15235   15238   15241   15244
   15235   15238   15241   15243   15235   15238   15241   15242
   15236   15235   15238   15241   15236   15235   15238   15240
   15236   15235   15238   15239   15237   15235   15238   15241
   15237   15235   15238   15240   15237   15235   15238   15239
   15238   15241   15244   15250   15238   15241   15244   15246
   15238   15241   15244   15245   15239   15238   15241   15244
   15239   15238   15241   15243   15239   15238   15241   15242
   15240   15238   15241   15244   15240   15238   15241   15243
   15240   15238   15241   15242   15241   15244   15250   15253
   15241   15244   15250   15252   15241   15244   15250   15251
   15241   15244   15246   15249   15241   15244   15246   15248
   15241   15244   15246   15247   15242   15241   15244   15250
   15242   15241   15244   15246   15242   15241   15244   15245
   15243   15241   15244   15250   15243   15241   15244   15246
   15243   15241   15244   15245   15245   15244   15250   15253
   15245   15244   15250   15252   15245   15244   15250   15251
   15245   15244   15246   15249   15245   15244   15246   15248
   15245   15244   15246   15247   15246   15244   15250   15253
   15246   15244   15250   15252   15246   15244   15250   15251
   15250   15244   15246   15247   15250   15244   15246   15248
   15250   15244   15246   15249   15254   15258   15261   15262
   15254   15258   15261   15292   15292   15297   15300   15254
   15299   15297   15300   15254   15298   15297   15300   15254
   15255   15254   15258   15261   15255   15254   15258   15260
   15255   15254   15258   15259   15255   15254   15300   15297
   15255   15254   15300   15302   15255   15254   15300   15301
   15255   15254   15256   15257   15256   15254   15258   15261
   15256   15254   15258   15260   15256   15254   15258   15259
   15256   15254   15300   15297   15256   15254   15300   15302
   15256   15254   15300   15301   15258   15254   15256   15257
   15300   15254   15256   15257   15258   15261   15262   15264
   15258   15261   15262   15263   15258   15261   15292   15290
   15258   15261   15292   15293   15258   15261   15292   15297
   15258   15254   15300   15297   15258   15254   15300   15302
   15258   15254   15300   15301   15259   15258   15261   15262
   15259   15258   15261   15292   15300   15254   15258   15259
   15260   15258   15261   15262   15260   15258   15261   15292
   15300   15254   15258   15260   15261   15262   15264   15267
   15261   15262   15264   15266   15261   15262   15264   15265
   15287   15290   15292   15261   15291   15290   15292   15261
   15267   15290   15292   15261   15261   15292   15293   15296
   15261   15292   15293   15295   15261   15292   15293   15294
   15261   15292   15297   15299   15261   15292   15297   15298
   15261   15292   15297   15300   15300   15254   15258   15261
   15262   15264   15267   15269   15262   15264   15267   15290
   15262   15264   15267   15268   15262   15261   15292   15290
   15262   15261   15292   15293   15262   15261   15292   15297
   15263   15262   15264   15267   15263   15262   15264   15266
   15263   15262   15264   15265   15292   15261   15262   15263
   15264   15267   15269   15271   15264   15267   15269   15279
   15264   15267   15269   15270   15264   15267   15290   15287
   15264   15267   15290   15292   15264   15267   15290   15291
   15292   15261   15262   15264   15265   15264   15267   15269
   15265   15264   15267   15290   15265   15264   15267   15268
   15266   15264   15267   15269   15266   15264   15267   15290
   15266   15264   15267   15268   15267   15269   15271   15274
   15267   15269   15271   15273   15267   15269   15271   15272
   15267   15269   15279   15277   15267   15269   15279   15280
   15267   15269   15279   15284   15289   15287   15290   15267
   15288   15287   15290   15267   15284   15287   15290   15267
   15267   15290   15292   15293   15267   15290   15292   15297
   15268   15267   15269   15271   15268   15267   15269   15279
   15268   15267   15269   15270   15268   15267   15290   15287
   15268   15267   15290   15292   15268   15267   15290   15291
   15269   15271   15274   15277   15269   15271   15274   15276
   15269   15271   15274   15275   15303   15277   15279   15269
   15278   15277   15279   15269   15274   15277   15279   15269
   15269   15279   15280   15283   15269   15279   15280   15282
   15269   15279   15280   15281   15269   15279   15284   15287
   15269   15279   15284   15286   15269   15279   15284   15285
   15269   15267   15290   15287   15269   15267   15290   15292
   15269   15267   15290   15291   15270   15269   15271   15274
   15270   15269   15271   15273   15270   15269   15271   15272
   15270   15269   15279   15277   15270   15269   15279   15280
   15270   15269   15279   15284   15290   15267   15269   15270
   15271   15274   15277   15303   15271   15274   15277   15279
   15271   15274   15277   15278   15271   15269   15279   15277
   15271   15269   15279   15280   15271   15269   15279   15284
   15290   15267   15269   15271   15272   15271   15274   15277
   15272   15271   15274   15276   15272   15271   15274   15275
   15279   15269   15271   15272   15273   15271   15274   15277
   15273   15271   15274   15276   15273   15271   15274   15275
   15279   15269   15271   15273   15274   15277   15303   15309
   15274   15277   15303   15305   15274   15277   15303   15304
   15274   15277   15279   15280   15274   15277   15279   15284
   15279   15269   15271   15274   15275   15274   15277   15303
   15275   15274   15277   15279   15275   15274   15277   15278
   15276   15274   15277   15303   15276   15274   15277   15279
   15276   15274   15277   15278   15277   15303   15309   15312
   15277   15303   15309   15311   15277   15303   15309   15310
   15277   15303   15305   15308   15277   15303   15305   15307
   15277   15303   15305   15306   15277   15279   15280   15283
   15277   15279   15280   15282   15277   15279   15280   15281
   15277   15279   15284   15287   15277   15279   15284   15286
   15277   15279   15284   15285   15278   15277   15303   15309
   15278   15277   15303   15305   15278   15277   15303   15304
   15278   15277   15279   15280   15278   15277   15279   15284
   15279   15277   15303   15309   15279   15277   15303   15305
   15279   15277   15303   15304   15279   15284   15287   15290
   15279   15284   15287   15289   15279   15284   15287   15288
   15290   15267   15269   15279   15303   15277   15279   15280
   15280   15279   15284   15287   15280   15279   15284   15286
   15280   15279   15284   15285   15284   15279   15280   15281
   15284   15279   15280   15282   15284   15279   15280   15283
   15284   15287   15290   15292   15284   15287   15290   15291
   15303   15277   15279   15284   15285   15284   15287   15290
   15285   15284   15287   15289   15285   15284   15287   15288
   15286   15284   15287   15290   15286   15284   15287   15289
   15286   15284   15287   15288   15287   15290   15292   15293
   15287   15290   15292   15297   15288   15287   15290   15292
   15288   15287   15290   15291   15289   15287   15290   15292
   15289   15287   15290   15291   15290   15292   15293   15296
   15290   15292   15293   15295   15290   15292   15293   15294
   15290   15292   15297   15299   15290   15292   15297   15298
   15290   15292   15297   15300   15291   15290   15292   15293
   15291   15290   15292   15297   15292   15297   15300   15302
   15292   15297   15300   15301   15293   15292   15297   15299
   15293   15292   15297   15298   15293   15292   15297   15300
   15297   15292   15293   15294   15297   15292   15293   15295
   15297   15292   15293   15296   15298   15297   15300   15302
   15298   15297   15300   15301   15299   15297   15300   15302
   15299   15297   15300   15301   15303   15309   15312   15315
   15303   15309   15312   15314   15303   15309   15312   15313
   15304   15303   15309   15312   15304   15303   15309   15311
   15304   15303   15309   15310   15304   15303   15305   15308
   15304   15303   15305   15307   15304   15303   15305   15306
   15305   15303   15309   15312   15305   15303   15309   15311
   15305   15303   15309   15310   15309   15303   15305   15306
   15309   15303   15305   15307   15309   15303   15305   15308
   15309   15312   15315   15318   15309   15312   15315   15317
   15309   15312   15315   15316   15310   15309   15312   15315
   15310   15309   15312   15314   15310   15309   15312   15313
   15311   15309   15312   15315   15311   15309   15312   15314
   15311   15309   15312   15313   15312   15315   15318   15324
   15312   15315   15318   15320   15312   15315   15318   15319
   15313   15312   15315   15318   15313   15312   15315   15317
   15313   15312   15315   15316   15314   15312   15315   15318
   15314   15312   15315   15317   15314   15312   15315   15316
   15315   15318   15324   15327   15315   15318   15324   15326
   15315   15318   15324   15325   15315   15318   15320   15323
   15315   15318   15320   15322   15315   15318   15320   15321
   15316   15315   15318   15324   15316   15315   15318   15320
   15316   15315   15318   15319   15317   15315   15318   15324
   15317   15315   15318   15320   15317   15315   15318   15319
   15319   15318   15324   15327   15319   15318   15324   15326
   15319   15318   15324   15325   15319   15318   15320   15323
   15319   15318   15320   15322   15319   15318   15320   15321
   15320   15318   15324   15327   15320   15318   15324   15326
   15320   15318   15324   15325   15324   15318   15320   15321
   15324   15318   15320   15322   15324   15318   15320   15323
   15328   15332   15335   15336   15328   15332   15335   15366
   15366   15371   15374   15328   15373   15371   15374   15328
   15372   15371   15374   15328   15329   15328   15332   15335
   15329   15328   15332   15334   15329   15328   15332   15333
   15329   15328   15374   15371   15329   15328   15374   15376
   15329   15328   15374   15375   15329   15328   15330   15331
   15330   15328   15332   15335   15330   15328   15332   15334
   15330   15328   15332   15333   15330   15328   15374   15371
   15330   15328   15374   15376   15330   15328   15374   15375
   15332   15328   15330   15331   15374   15328   15330   15331
   15332   15335   15336   15338   15332   15335   15336   15337
   15332   15335   15366   15364   15332   15335   15366   15367
   15332   15335   15366   15371   15332   15328   15374   15371
   15332   15328   15374   15376   15332   15328   15374   15375
   15333   15332   15335   15336   15333   15332   15335   15366
   15374   15328   15332   15333   15334   15332   15335   15336
   15334   15332   15335   15366   15374   15328   15332   15334
   15335   15336   15338   15341   15335   15336   15338   15340
   15335   15336   15338   15339   15361   15364   15366   15335
   15365   15364   15366   15335   15341   15364   15366   15335
   15335   15366   15367   15370   15335   15366   15367   15369
   15335   15366   15367   15368   15335   15366   15371   15373
   15335   15366   15371   15372   15335   15366   15371   15374
   15374   15328   15332   15335   15336   15338   15341   15343
   15336   15338   15341   15364   15336   15338   15341   15342
   15336   15335   15366   15364   15336   15335   15366   15367
   15336   15335   15366   15371   15337   15336   15338   15341
   15337   15336   15338   15340   15337   15336   15338   15339
   15366   15335   15336   15337   15338   15341   15343   15345
   15338   15341   15343   15353   15338   15341   15343   15344
   15338   15341   15364   15361   15338   15341   15364   15366
   15338   15341   15364   15365   15366   15335   15336   15338
   15339   15338   15341   15343   15339   15338   15341   15364
   15339   15338   15341   15342   15340   15338   15341   15343
   15340   15338   15341   15364   15340   15338   15341   15342
   15341   15343   15345   15348   15341   15343   15345   15347
   15341   15343   15345   15346   15341   15343   15353   15351
   15341   15343   15353   15354   15341   15343   15353   15358
   15363   15361   15364   15341   15362   15361   15364   15341
   15358   15361   15364   15341   15341   15364   15366   15367
   15341   15364   15366   15371   15342   15341   15343   15345
   15342   15341   15343   15353   15342   15341   15343   15344
   15342   15341   15364   15361   15342   15341   15364   15366
   15342   15341   15364   15365   15343   15345   15348   15351
   15343   15345   15348   15350   15343   15345   15348   15349
   15377   15351   15353   15343   15352   15351   15353   15343
   15348   15351   15353   15343   15343   15353   15354   15357
   15343   15353   15354   15356   15343   15353   15354   15355
   15343   15353   15358   15361   15343   15353   15358   15360
   15343   15353   15358   15359   15343   15341   15364   15361
   15343   15341   15364   15366   15343   15341   15364   15365
   15344   15343   15345   15348   15344   15343   15345   15347
   15344   15343   15345   15346   15344   15343   15353   15351
   15344   15343   15353   15354   15344   15343   15353   15358
   15364   15341   15343   15344   15345   15348   15351   15377
   15345   15348   15351   15353   15345   15348   15351   15352
   15345   15343   15353   15351   15345   15343   15353   15354
   15345   15343   15353   15358   15364   15341   15343   15345
   15346   15345   15348   15351   15346   15345   15348   15350
   15346   15345   15348   15349   15353   15343   15345   15346
   15347   15345   15348   15351   15347   15345   15348   15350
   15347   15345   15348   15349   15353   15343   15345   15347
   15348   15351   15377   15383   15348   15351   15377   15379
   15348   15351   15377   15378   15348   15351   15353   15354
   15348   15351   15353   15358   15353   15343   15345   15348
   15349   15348   15351   15377   15349   15348   15351   15353
   15349   15348   15351   15352   15350   15348   15351   15377
   15350   15348   15351   15353   15350   15348   15351   15352
   15351   15377   15383   15386   15351   15377   15383   15385
   15351   15377   15383   15384   15351   15377   15379   15382
   15351   15377   15379   15381   15351   15377   15379   15380
   15351   15353   15354   15357   15351   15353   15354   15356
   15351   15353   15354   15355   15351   15353   15358   15361
   15351   15353   15358   15360   15351   15353   15358   15359
   15352   15351   15377   15383   15352   15351   15377   15379
   15352   15351   15377   15378   15352   15351   15353   15354
   15352   15351   15353   15358   15353   15351   15377   15383
   15353   15351   15377   15379   15353   15351   15377   15378
   15353   15358   15361   15364   15353   15358   15361   15363
   15353   15358   15361   15362   15364   15341   15343   15353
   15377   15351   15353   15354   15354   15353   15358   15361
   15354   15353   15358   15360   15354   15353   15358   15359
   15358   15353   15354   15355   15358   15353   15354   15356
   15358   15353   15354   15357   15358   15361   15364   15366
   15358   15361   15364   15365   15377   15351   15353   15358
   15359   15358   15361   15364   15359   15358   15361   15363
   15359   15358   15361   15362   15360   15358   15361   15364
   15360   15358   15361   15363   15360   15358   15361   15362
   15361   15364   15366   15367   15361   15364   15366   15371
   15362   15361   15364   15366   15362   15361   15364   15365
   15363   15361   15364   15366   15363   15361   15364   15365
   15364   15366   15367   15370   15364   15366   15367   15369
   15364   15366   15367   15368   15364   15366   15371   15373
   15364   15366   15371   15372   15364   15366   15371   15374
   15365   15364   15366   15367   15365   15364   15366   15371
   15366   15371   15374   15376   15366   15371   15374   15375
   15367   15366   15371   15373   15367   15366   15371   15372
   15367   15366   15371   15374   15371   15366   15367   15368
   15371   15366   15367   15369   15371   15366   15367   15370
   15372   15371   15374   15376   15372   15371   15374   15375
   15373   15371   15374   15376   15373   15371   15374   15375
   15377   15383   15386   15389   15377   15383   15386   15388
   15377   15383   15386   15387   15378   15377   15383   15386
   15378   15377   15383   15385   15378   15377   15383   15384
   15378   15377   15379   15382   15378   15377   15379   15381
   15378   15377   15379   15380   15379   15377   15383   15386
   15379   15377   15383   15385   15379   15377   15383   15384
   15383   15377   15379   15380   15383   15377   15379   15381
   15383   15377   15379   15382   15383   15386   15389   15392
   15383   15386   15389   15391   15383   15386   15389   15390
   15384   15383   15386   15389   15384   15383   15386   15388
   15384   15383   15386   15387   15385   15383   15386   15389
   15385   15383   15386   15388   15385   15383   15386   15387
   15386   15389   15392   15398   15386   15389   15392   15394
   15386   15389   15392   15393   15387   15386   15389   15392
   15387   15386   15389   15391   15387   15386   15389   15390
   15388   15386   15389   15392   15388   15386   15389   15391
   15388   15386   15389   15390   15389   15392   15398   15401
   15389   15392   15398   15400   15389   15392   15398   15399
   15389   15392   15394   15397   15389   15392   15394   15396
   15389   15392   15394   15395   15390   15389   15392   15398
   15390   15389   15392   15394   15390   15389   15392   15393
   15391   15389   15392   15398   15391   15389   15392   15394
   15391   15389   15392   15393   15393   15392   15398   15401
   15393   15392   15398   15400   15393   15392   15398   15399
   15393   15392   15394   15397   15393   15392   15394   15396
   15393   15392   15394   15395   15394   15392   15398   15401
   15394   15392   15398   15400   15394   15392   15398   15399
   15398   15392   15394   15395   15398   15392   15394   15396
   15398   15392   15394   15397   15402   15406   15409   15410
   15402   15406   15409   15440   15440   15445   15448   15402
   15447   15445   15448   15402   15446   15445   15448   15402
   15403   15402   15406   15409   15403   15402   15406   15408
   15403   15402   15406   15407   15403   15402   15448   15445
   15403   15402   15448   15450   15403   15402   15448   15449
   15403   15402   15404   15405   15404   15402   15406   15409
   15404   15402   15406   15408   15404   15402   15406   15407
   15404   15402   15448   15445   15404   15402   15448   15450
   15404   15402   15448   15449   15406   15402   15404   15405
   15448   15402   15404   15405   15406   15409   15410   15412
   15406   15409   15410   15411   15406   15409   15440   15438
   15406   15409   15440   15441   15406   15409   15440   15445
   15406   15402   15448   15445   15406   15402   15448   15450
   15406   15402   15448   15449   15407   15406   15409   15410
   15407   15406   15409   15440   15448   15402   15406   15407
   15408   15406   15409   15410   15408   15406   15409   15440
   15448   15402   15406   15408   15409   15410   15412   15415
   15409   15410   15412   15414   15409   15410   15412   15413
   15435   15438   15440   15409   15439   15438   15440   15409
   15415   15438   15440   15409   15409   15440   15441   15444
   15409   15440   15441   15443   15409   15440   15441   15442
   15409   15440   15445   15447   15409   15440   15445   15446
   15409   15440   15445   15448   15448   15402   15406   15409
   15410   15412   15415   15417   15410   15412   15415   15438
   15410   15412   15415   15416   15410   15409   15440   15438
   15410   15409   15440   15441   15410   15409   15440   15445
   15411   15410   15412   15415   15411   15410   15412   15414
   15411   15410   15412   15413   15440   15409   15410   15411
   15412   15415   15417   15419   15412   15415   15417   15427
   15412   15415   15417   15418   15412   15415   15438   15435
   15412   15415   15438   15440   15412   15415   15438   15439
   15440   15409   15410   15412   15413   15412   15415   15417
   15413   15412   15415   15438   15413   15412   15415   15416
   15414   15412   15415   15417   15414   15412   15415   15438
   15414   15412   15415   15416   15415   15417   15419   15422
   15415   15417   15419   15421   15415   15417   15419   15420
   15415   15417   15427   15425   15415   15417   15427   15428
   15415   15417   15427   15432   15437   15435   15438   15415
   15436   15435   15438   15415   15432   15435   15438   15415
   15415   15438   15440   15441   15415   15438   15440   15445
   15416   15415   15417   15419   15416   15415   15417   15427
   15416   15415   15417   15418   15416   15415   15438   15435
   15416   15415   15438   15440   15416   15415   15438   15439
   15417   15419   15422   15425   15417   15419   15422   15424
   15417   15419   15422   15423   15451   15425   15427   15417
   15426   15425   15427   15417   15422   15425   15427   15417
   15417   15427   15428   15431   15417   15427   15428   15430
   15417   15427   15428   15429   15417   15427   15432   15435
   15417   15427   15432   15434   15417   15427   15432   15433
   15417   15415   15438   15435   15417   15415   15438   15440
   15417   15415   15438   15439   15418   15417   15419   15422
   15418   15417   15419   15421   15418   15417   15419   15420
   15418   15417   15427   15425   15418   15417   15427   15428
   15418   15417   15427   15432   15438   15415   15417   15418
   15419   15422   15425   15451   15419   15422   15425   15427
   15419   15422   15425   15426   15419   15417   15427   15425
   15419   15417   15427   15428   15419   15417   15427   15432
   15438   15415   15417   15419   15420   15419   15422   15425
   15420   15419   15422   15424   15420   15419   15422   15423
   15427   15417   15419   15420   15421   15419   15422   15425
   15421   15419   15422   15424   15421   15419   15422   15423
   15427   15417   15419   15421   15422   15425   15451   15457
   15422   15425   15451   15453   15422   15425   15451   15452
   15422   15425   15427   15428   15422   15425   15427   15432
   15427   15417   15419   15422   15423   15422   15425   15451
   15423   15422   15425   15427   15423   15422   15425   15426
   15424   15422   15425   15451   15424   15422   15425   15427
   15424   15422   15425   15426   15425   15451   15457   15460
   15425   15451   15457   15459   15425   15451   15457   15458
   15425   15451   15453   15456   15425   15451   15453   15455
   15425   15451   15453   15454   15425   15427   15428   15431
   15425   15427   15428   15430   15425   15427   15428   15429
   15425   15427   15432   15435   15425   15427   15432   15434
   15425   15427   15432   15433   15426   15425   15451   15457
   15426   15425   15451   15453   15426   15425   15451   15452
   15426   15425   15427   15428   15426   15425   15427   15432
   15427   15425   15451   15457   15427   15425   15451   15453
   15427   15425   15451   15452   15427   15432   15435   15438
   15427   15432   15435   15437   15427   15432   15435   15436
   15438   15415   15417   15427   15451   15425   15427   15428
   15428   15427   15432   15435   15428   15427   15432   15434
   15428   15427   15432   15433   15432   15427   15428   15429
   15432   15427   15428   15430   15432   15427   15428   15431
   15432   15435   15438   15440   15432   15435   15438   15439
   15451   15425   15427   15432   15433   15432   15435   15438
   15433   15432   15435   15437   15433   15432   15435   15436
   15434   15432   15435   15438   15434   15432   15435   15437
   15434   15432   15435   15436   15435   15438   15440   15441
   15435   15438   15440   15445   15436   15435   15438   15440
   15436   15435   15438   15439   15437   15435   15438   15440
   15437   15435   15438   15439   15438   15440   15441   15444
   15438   15440   15441   15443   15438   15440   15441   15442
   15438   15440   15445   15447   15438   15440   15445   15446
   15438   15440   15445   15448   15439   15438   15440   15441
   15439   15438   15440   15445   15440   15445   15448   15450
   15440   15445   15448   15449   15441   15440   15445   15447
   15441   15440   15445   15446   15441   15440   15445   15448
   15445   15440   15441   15442   15445   15440   15441   15443
   15445   15440   15441   15444   15446   15445   15448   15450
   15446   15445   15448   15449   15447   15445   15448   15450
   15447   15445   15448   15449   15451   15457   15460   15463
   15451   15457   15460   15462   15451   15457   15460   15461
   15452   15451   15457   15460   15452   15451   15457   15459
   15452   15451   15457   15458   15452   15451   15453   15456
   15452   15451   15453   15455   15452   15451   15453   15454
   15453   15451   15457   15460   15453   15451   15457   15459
   15453   15451   15457   15458   15457   15451   15453   15454
   15457   15451   15453   15455   15457   15451   15453   15456
   15457   15460   15463   15466   15457   15460   15463   15465
   15457   15460   15463   15464   15458   15457   15460   15463
   15458   15457   15460   15462   15458   15457   15460   15461
   15459   15457   15460   15463   15459   15457   15460   15462
   15459   15457   15460   15461   15460   15463   15466   15472
   15460   15463   15466   15468   15460   15463   15466   15467
   15461   15460   15463   15466   15461   15460   15463   15465
   15461   15460   15463   15464   15462   15460   15463   15466
   15462   15460   15463   15465   15462   15460   15463   15464
   15463   15466   15472   15475   15463   15466   15472   15474
   15463   15466   15472   15473   15463   15466   15468   15471
   15463   15466   15468   15470   15463   15466   15468   15469
   15464   15463   15466   15472   15464   15463   15466   15468
   15464   15463   15466   15467   15465   15463   15466   15472
   15465   15463   15466   15468   15465   15463   15466   15467
   15467   15466   15472   15475   15467   15466   15472   15474
   15467   15466   15472   15473   15467   15466   15468   15471
   15467   15466   15468   15470   15467   15466   15468   15469
   15468   15466   15472   15475   15468   15466   15472   15474
   15468   15466   15472   15473   15472   15466   15468   15469
   15472   15466   15468   15470   15472   15466   15468   15471
   15476   15480   15483   15484   15476   15480   15483   15514
   15514   15519   15522   15476   15521   15519   15522   15476
   15520   15519   15522   15476   15477   15476   15480   15483
   15477   15476   15480   15482   15477   15476   15480   15481
   15477   15476   15522   15519   15477   15476   15522   15524
   15477   15476   15522   15523   15477   15476   15478   15479
   15478   15476   15480   15483   15478   15476   15480   15482
   15478   15476   15480   15481   15478   15476   15522   15519
   15478   15476   15522   15524   15478   15476   15522   15523
   15480   15476   15478   15479   15522   15476   15478   15479
   15480   15483   15484   15486   15480   15483   15484   15485
   15480   15483   15514   15512   15480   15483   15514   15515
   15480   15483   15514   15519   15480   15476   15522   15519
   15480   15476   15522   15524   15480   15476   15522   15523
   15481   15480   15483   15484   15481   15480   15483   15514
   15522   15476   15480   15481   15482   15480   15483   15484
   15482   15480   15483   15514   15522   15476   15480   15482
   15483   15484   15486   15489   15483   15484   15486   15488
   15483   15484   15486   15487   15509   15512   15514   15483
   15513   15512   15514   15483   15489   15512   15514   15483
   15483   15514   15515   15518   15483   15514   15515   15517
   15483   15514   15515   15516   15483   15514   15519   15521
   15483   15514   15519   15520   15483   15514   15519   15522
   15522   15476   15480   15483   15484   15486   15489   15491
   15484   15486   15489   15512   15484   15486   15489   15490
   15484   15483   15514   15512   15484   15483   15514   15515
   15484   15483   15514   15519   15485   15484   15486   15489
   15485   15484   15486   15488   15485   15484   15486   15487
   15514   15483   15484   15485   15486   15489   15491   15493
   15486   15489   15491   15501   15486   15489   15491   15492
   15486   15489   15512   15509   15486   15489   15512   15514
   15486   15489   15512   15513   15514   15483   15484   15486
   15487   15486   15489   15491   15487   15486   15489   15512
   15487   15486   15489   15490   15488   15486   15489   15491
   15488   15486   15489   15512   15488   15486   15489   15490
   15489   15491   15493   15496   15489   15491   15493   15495
   15489   15491   15493   15494   15489   15491   15501   15499
   15489   15491   15501   15502   15489   15491   15501   15506
   15511   15509   15512   15489   15510   15509   15512   15489
   15506   15509   15512   15489   15489   15512   15514   15515
   15489   15512   15514   15519   15490   15489   15491   15493
   15490   15489   15491   15501   15490   15489   15491   15492
   15490   15489   15512   15509   15490   15489   15512   15514
   15490   15489   15512   15513   15491   15493   15496   15499
   15491   15493   15496   15498   15491   15493   15496   15497
   15525   15499   15501   15491   15500   15499   15501   15491
   15496   15499   15501   15491   15491   15501   15502   15505
   15491   15501   15502   15504   15491   15501   15502   15503
   15491   15501   15506   15509   15491   15501   15506   15508
   15491   15501   15506   15507   15491   15489   15512   15509
   15491   15489   15512   15514   15491   15489   15512   15513
   15492   15491   15493   15496   15492   15491   15493   15495
   15492   15491   15493   15494   15492   15491   15501   15499
   15492   15491   15501   15502   15492   15491   15501   15506
   15512   15489   15491   15492   15493   15496   15499   15525
   15493   15496   15499   15501   15493   15496   15499   15500
   15493   15491   15501   15499   15493   15491   15501   15502
   15493   15491   15501   15506   15512   15489   15491   15493
   15494   15493   15496   15499   15494   15493   15496   15498
   15494   15493   15496   15497   15501   15491   15493   15494
   15495   15493   15496   15499   15495   15493   15496   15498
   15495   15493   15496   15497   15501   15491   15493   15495
   15496   15499   15525   15531   15496   15499   15525   15527
   15496   15499   15525   15526   15496   15499   15501   15502
   15496   15499   15501   15506   15501   15491   15493   15496
   15497   15496   15499   15525   15497   15496   15499   15501
   15497   15496   15499   15500   15498   15496   15499   15525
   15498   15496   15499   15501   15498   15496   15499   15500
   15499   15525   15531   15534   15499   15525   15531   15533
   15499   15525   15531   15532   15499   15525   15527   15530
   15499   15525   15527   15529   15499   15525   15527   15528
   15499   15501   15502   15505   15499   15501   15502   15504
   15499   15501   15502   15503   15499   15501   15506   15509
   15499   15501   15506   15508   15499   15501   15506   15507
   15500   15499   15525   15531   15500   15499   15525   15527
   15500   15499   15525   15526   15500   15499   15501   15502
   15500   15499   15501   15506   15501   15499   15525   15531
   15501   15499   15525   15527   15501   15499   15525   15526
   15501   15506   15509   15512   15501   15506   15509   15511
   15501   15506   15509   15510   15512   15489   15491   15501
   15525   15499   15501   15502   15502   15501   15506   15509
   15502   15501   15506   15508   15502   15501   15506   15507
   15506   15501   15502   15503   15506   15501   15502   15504
   15506   15501   15502   15505   15506   15509   15512   15514
   15506   15509   15512   15513   15525   15499   15501   15506
   15507   15506   15509   15512   15507   15506   15509   15511
   15507   15506   15509   15510   15508   15506   15509   15512
   15508   15506   15509   15511   15508   15506   15509   15510
   15509   15512   15514   15515   15509   15512   15514   15519
   15510   15509   15512   15514   15510   15509   15512   15513
   15511   15509   15512   15514   15511   15509   15512   15513
   15512   15514   15515   15518   15512   15514   15515   15517
   15512   15514   15515   15516   15512   15514   15519   15521
   15512   15514   15519   15520   15512   15514   15519   15522
   15513   15512   15514   15515   15513   15512   15514   15519
   15514   15519   15522   15524   15514   15519   15522   15523
   15515   15514   15519   15521   15515   15514   15519   15520
   15515   15514   15519   15522   15519   15514   15515   15516
   15519   15514   15515   15517   15519   15514   15515   15518
   15520   15519   15522   15524   15520   15519   15522   15523
   15521   15519   15522   15524   15521   15519   15522   15523
   15525   15531   15534   15537   15525   15531   15534   15536
   15525   15531   15534   15535   15526   15525   15531   15534
   15526   15525   15531   15533   15526   15525   15531   15532
   15526   15525   15527   15530   15526   15525   15527   15529
   15526   15525   15527   15528   15527   15525   15531   15534
   15527   15525   15531   15533   15527   15525   15531   15532
   15531   15525   15527   15528   15531   15525   15527   15529
   15531   15525   15527   15530   15531   15534   15537   15540
   15531   15534   15537   15539   15531   15534   15537   15538
   15532   15531   15534   15537   15532   15531   15534   15536
   15532   15531   15534   15535   15533   15531   15534   15537
   15533   15531   15534   15536   15533   15531   15534   15535
   15534   15537   15540   15546   15534   15537   15540   15542
   15534   15537   15540   15541   15535   15534   15537   15540
   15535   15534   15537   15539   15535   15534   15537   15538
   15536   15534   15537   15540   15536   15534   15537   15539
   15536   15534   15537   15538   15537   15540   15546   15549
   15537   15540   15546   15548   15537   15540   15546   15547
   15537   15540   15542   15545   15537   15540   15542   15544
   15537   15540   15542   15543   15538   15537   15540   15546
   15538   15537   15540   15542   15538   15537   15540   15541
   15539   15537   15540   15546   15539   15537   15540   15542
   15539   15537   15540   15541   15541   15540   15546   15549
   15541   15540   15546   15548   15541   15540   15546   15547
   15541   15540   15542   15545   15541   15540   15542   15544
   15541   15540   15542   15543   15542   15540   15546   15549
   15542   15540   15546   15548   15542   15540   15546   15547
   15546   15540   15542   15543   15546   15540   15542   15544
   15546   15540   15542   15545   15550   15554   15557   15558
   15550   15554   15557   15588   15588   15593   15596   15550
   15595   15593   15596   15550   15594   15593   15596   15550
   15551   15550   15554   15557   15551   15550   15554   15556
   15551   15550   15554   15555   15551   15550   15596   15593
   15551   15550   15596   15598   15551   15550   15596   15597
   15551   15550   15552   15553   15552   15550   15554   15557
   15552   15550   15554   15556   15552   15550   15554   15555
   15552   15550   15596   15593   15552   15550   15596   15598
   15552   15550   15596   15597   15554   15550   15552   15553
   15596   15550   15552   15553   15554   15557   15558   15560
   15554   15557   15558   15559   15554   15557   15588   15586
   15554   15557   15588   15589   15554   15557   15588   15593
   15554   15550   15596   15593   15554   15550   15596   15598
   15554   15550   15596   15597   15555   15554   15557   15558
   15555   15554   15557   15588   15596   15550   15554   15555
   15556   15554   15557   15558   15556   15554   15557   15588
   15596   15550   15554   15556   15557   15558   15560   15563
   15557   15558   15560   15562   15557   15558   15560   15561
   15583   15586   15588   15557   15587   15586   15588   15557
   15563   15586   15588   15557   15557   15588   15589   15592
   15557   15588   15589   15591   15557   15588   15589   15590
   15557   15588   15593   15595   15557   15588   15593   15594
   15557   15588   15593   15596   15596   15550   15554   15557
   15558   15560   15563   15565   15558   15560   15563   15586
   15558   15560   15563   15564   15558   15557   15588   15586
   15558   15557   15588   15589   15558   15557   15588   15593
   15559   15558   15560   15563   15559   15558   15560   15562
   15559   15558   15560   15561   15588   15557   15558   15559
   15560   15563   15565   15567   15560   15563   15565   15575
   15560   15563   15565   15566   15560   15563   15586   15583
   15560   15563   15586   15588   15560   15563   15586   15587
   15588   15557   15558   15560   15561   15560   15563   15565
   15561   15560   15563   15586   15561   15560   15563   15564
   15562   15560   15563   15565   15562   15560   15563   15586
   15562   15560   15563   15564   15563   15565   15567   15570
   15563   15565   15567   15569   15563   15565   15567   15568
   15563   15565   15575   15573   15563   15565   15575   15576
   15563   15565   15575   15580   15585   15583   15586   15563
   15584   15583   15586   15563   15580   15583   15586   15563
   15563   15586   15588   15589   15563   15586   15588   15593
   15564   15563   15565   15567   15564   15563   15565   15575
   15564   15563   15565   15566   15564   15563   15586   15583
   15564   15563   15586   15588   15564   15563   15586   15587
   15565   15567   15570   15573   15565   15567   15570   15572
   15565   15567   15570   15571   15599   15573   15575   15565
   15574   15573   15575   15565   15570   15573   15575   15565
   15565   15575   15576   15579   15565   15575   15576   15578
   15565   15575   15576   15577   15565   15575   15580   15583
   15565   15575   15580   15582   15565   15575   15580   15581
   15565   15563   15586   15583   15565   15563   15586   15588
   15565   15563   15586   15587   15566   15565   15567   15570
   15566   15565   15567   15569   15566   15565   15567   15568
   15566   15565   15575   15573   15566   15565   15575   15576
   15566   15565   15575   15580   15586   15563   15565   15566
   15567   15570   15573   15599   15567   15570   15573   15575
   15567   15570   15573   15574   15567   15565   15575   15573
   15567   15565   15575   15576   15567   15565   15575   15580
   15586   15563   15565   15567   15568   15567   15570   15573
   15568   15567   15570   15572   15568   15567   15570   15571
   15575   15565   15567   15568   15569   15567   15570   15573
   15569   15567   15570   15572   15569   15567   15570   15571
   15575   15565   15567   15569   15570   15573   15599   15605
   15570   15573   15599   15601   15570   15573   15599   15600
   15570   15573   15575   15576   15570   15573   15575   15580
   15575   15565   15567   15570   15571   15570   15573   15599
   15571   15570   15573   15575   15571   15570   15573   15574
   15572   15570   15573   15599   15572   15570   15573   15575
   15572   15570   15573   15574   15573   15599   15605   15608
   15573   15599   15605   15607   15573   15599   15605   15606
   15573   15599   15601   15604   15573   15599   15601   15603
   15573   15599   15601   15602   15573   15575   15576   15579
   15573   15575   15576   15578   15573   15575   15576   15577
   15573   15575   15580   15583   15573   15575   15580   15582
   15573   15575   15580   15581   15574   15573   15599   15605
   15574   15573   15599   15601   15574   15573   15599   15600
   15574   15573   15575   15576   15574   15573   15575   15580
   15575   15573   15599   15605   15575   15573   15599   15601
   15575   15573   15599   15600   15575   15580   15583   15586
   15575   15580   15583   15585   15575   15580   15583   15584
   15586   15563   15565   15575   15599   15573   15575   15576
   15576   15575   15580   15583   15576   15575   15580   15582
   15576   15575   15580   15581   15580   15575   15576   15577
   15580   15575   15576   15578   15580   15575   15576   15579
   15580   15583   15586   15588   15580   15583   15586   15587
   15599   15573   15575   15580   15581   15580   15583   15586
   15581   15580   15583   15585   15581   15580   15583   15584
   15582   15580   15583   15586   15582   15580   15583   15585
   15582   15580   15583   15584   15583   15586   15588   15589
   15583   15586   15588   15593   15584   15583   15586   15588
   15584   15583   15586   15587   15585   15583   15586   15588
   15585   15583   15586   15587   15586   15588   15589   15592
   15586   15588   15589   15591   15586   15588   15589   15590
   15586   15588   15593   15595   15586   15588   15593   15594
   15586   15588   15593   15596   15587   15586   15588   15589
   15587   15586   15588   15593   15588   15593   15596   15598
   15588   15593   15596   15597   15589   15588   15593   15595
   15589   15588   15593   15594   15589   15588   15593   15596
   15593   15588   15589   15590   15593   15588   15589   15591
   15593   15588   15589   15592   15594   15593   15596   15598
   15594   15593   15596   15597   15595   15593   15596   15598
   15595   15593   15596   15597   15599   15605   15608   15611
   15599   15605   15608   15610   15599   15605   15608   15609
   15600   15599   15605   15608   15600   15599   15605   15607
   15600   15599   15605   15606   15600   15599   15601   15604
   15600   15599   15601   15603   15600   15599   15601   15602
   15601   15599   15605   15608   15601   15599   15605   15607
   15601   15599   15605   15606   15605   15599   15601   15602
   15605   15599   15601   15603   15605   15599   15601   15604
   15605   15608   15611   15614   15605   15608   15611   15613
   15605   15608   15611   15612   15606   15605   15608   15611
   15606   15605   15608   15610   15606   15605   15608   15609
   15607   15605   15608   15611   15607   15605   15608   15610
   15607   15605   15608   15609   15608   15611   15614   15620
   15608   15611   15614   15616   15608   15611   15614   15615
   15609   15608   15611   15614   15609   15608   15611   15613
   15609   15608   15611   15612   15610   15608   15611   15614
   15610   15608   15611   15613   15610   15608   15611   15612
   15611   15614   15620   15623   15611   15614   15620   15622
   15611   15614   15620   15621   15611   15614   15616   15619
   15611   15614   15616   15618   15611   15614   15616   15617
   15612   15611   15614   15620   15612   15611   15614   15616
   15612   15611   15614   15615   15613   15611   15614   15620
   15613   15611   15614   15616   15613   15611   15614   15615
   15615   15614   15620   15623   15615   15614   15620   15622
   15615   15614   15620   15621   15615   15614   15616   15619
   15615   15614   15616   15618   15615   15614   15616   15617
   15616   15614   15620   15623   15616   15614   15620   15622
   15616   15614   15620   15621   15620   15614   15616   15617
   15620   15614   15616   15618   15620   15614   15616   15619
   15624   15628   15631   15632   15624   15628   15631   15662
   15662   15667   15670   15624   15669   15667   15670   15624
   15668   15667   15670   15624   15625   15624   15628   15631
   15625   15624   15628   15630   15625   15624   15628   15629
   15625   15624   15670   15667   15625   15624   15670   15672
   15625   15624   15670   15671   15625   15624   15626   15627
   15626   15624   15628   15631   15626   15624   15628   15630
   15626   15624   15628   15629   15626   15624   15670   15667
   15626   15624   15670   15672   15626   15624   15670   15671
   15628   15624   15626   15627   15670   15624   15626   15627
   15628   15631   15632   15634   15628   15631   15632   15633
   15628   15631   15662   15660   15628   15631   15662   15663
   15628   15631   15662   15667   15628   15624   15670   15667
   15628   15624   15670   15672   15628   15624   15670   15671
   15629   15628   15631   15632   15629   15628   15631   15662
   15670   15624   15628   15629   15630   15628   15631   15632
   15630   15628   15631   15662   15670   15624   15628   15630
   15631   15632   15634   15637   15631   15632   15634   15636
   15631   15632   15634   15635   15657   15660   15662   15631
   15661   15660   15662   15631   15637   15660   15662   15631
   15631   15662   15663   15666   15631   15662   15663   15665
   15631   15662   15663   15664   15631   15662   15667   15669
   15631   15662   15667   15668   15631   15662   15667   15670
   15670   15624   15628   15631   15632   15634   15637   15639
   15632   15634   15637   15660   15632   15634   15637   15638
   15632   15631   15662   15660   15632   15631   15662   15663
   15632   15631   15662   15667   15633   15632   15634   15637
   15633   15632   15634   15636   15633   15632   15634   15635
   15662   15631   15632   15633   15634   15637   15639   15641
   15634   15637   15639   15649   15634   15637   15639   15640
   15634   15637   15660   15657   15634   15637   15660   15662
   15634   15637   15660   15661   15662   15631   15632   15634
   15635   15634   15637   15639   15635   15634   15637   15660
   15635   15634   15637   15638   15636   15634   15637   15639
   15636   15634   15637   15660   15636   15634   15637   15638
   15637   15639   15641   15644   15637   15639   15641   15643
   15637   15639   15641   15642   15637   15639   15649   15647
   15637   15639   15649   15650   15637   15639   15649   15654
   15659   15657   15660   15637   15658   15657   15660   15637
   15654   15657   15660   15637   15637   15660   15662   15663
   15637   15660   15662   15667   15638   15637   15639   15641
   15638   15637   15639   15649   15638   15637   15639   15640
   15638   15637   15660   15657   15638   15637   15660   15662
   15638   15637   15660   15661   15639   15641   15644   15647
   15639   15641   15644   15646   15639   15641   15644   15645
   15673   15647   15649   15639   15648   15647   15649   15639
   15644   15647   15649   15639   15639   15649   15650   15653
   15639   15649   15650   15652   15639   15649   15650   15651
   15639   15649   15654   15657   15639   15649   15654   15656
   15639   15649   15654   15655   15639   15637   15660   15657
   15639   15637   15660   15662   15639   15637   15660   15661
   15640   15639   15641   15644   15640   15639   15641   15643
   15640   15639   15641   15642   15640   15639   15649   15647
   15640   15639   15649   15650   15640   15639   15649   15654
   15660   15637   15639   15640   15641   15644   15647   15673
   15641   15644   15647   15649   15641   15644   15647   15648
   15641   15639   15649   15647   15641   15639   15649   15650
   15641   15639   15649   15654   15660   15637   15639   15641
   15642   15641   15644   15647   15642   15641   15644   15646
   15642   15641   15644   15645   15649   15639   15641   15642
   15643   15641   15644   15647   15643   15641   15644   15646
   15643   15641   15644   15645   15649   15639   15641   15643
   15644   15647   15673   15679   15644   15647   15673   15675
   15644   15647   15673   15674   15644   15647   15649   15650
   15644   15647   15649   15654   15649   15639   15641   15644
   15645   15644   15647   15673   15645   15644   15647   15649
   15645   15644   15647   15648   15646   15644   15647   15673
   15646   15644   15647   15649   15646   15644   15647   15648
   15647   15673   15679   15682   15647   15673   15679   15681
   15647   15673   15679   15680   15647   15673   15675   15678
   15647   15673   15675   15677   15647   15673   15675   15676
   15647   15649   15650   15653   15647   15649   15650   15652
   15647   15649   15650   15651   15647   15649   15654   15657
   15647   15649   15654   15656   15647   15649   15654   15655
   15648   15647   15673   15679   15648   15647   15673   15675
   15648   15647   15673   15674   15648   15647   15649   15650
   15648   15647   15649   15654   15649   15647   15673   15679
   15649   15647   15673   15675   15649   15647   15673   15674
   15649   15654   15657   15660   15649   15654   15657   15659
   15649   15654   15657   15658   15660   15637   15639   15649
   15673   15647   15649   15650   15650   15649   15654   15657
   15650   15649   15654   15656   15650   15649   15654   15655
   15654   15649   15650   15651   15654   15649   15650   15652
   15654   15649   15650   15653   15654   15657   15660   15662
   15654   15657   15660   15661   15673   15647   15649   15654
   15655   15654   15657   15660   15655   15654   15657   15659
   15655   15654   15657   15658   15656   15654   15657   15660
   15656   15654   15657   15659   15656   15654   15657   15658
   15657   15660   15662   15663   15657   15660   15662   15667
   15658   15657   15660   15662   15658   15657   15660   15661
   15659   15657   15660   15662   15659   15657   15660   15661
   15660   15662   15663   15666   15660   15662   15663   15665
   15660   15662   15663   15664   15660   15662   15667   15669
   15660   15662   15667   15668   15660   15662   15667   15670
   15661   15660   15662   15663   15661   15660   15662   15667
   15662   15667   15670   15672   15662   15667   15670   15671
   15663   15662   15667   15669   15663   15662   15667   15668
   15663   15662   15667   15670   15667   15662   15663   15664
   15667   15662   15663   15665   15667   15662   15663   15666
   15668   15667   15670   15672   15668   15667   15670   15671
   15669   15667   15670   15672   15669   15667   15670   15671
   15673   15679   15682   15685   15673   15679   15682   15684
   15673   15679   15682   15683   15674   15673   15679   15682
   15674   15673   15679   15681   15674   15673   15679   15680
   15674   15673   15675   15678   15674   15673   15675   15677
   15674   15673   15675   15676   15675   15673   15679   15682
   15675   15673   15679   15681   15675   15673   15679   15680
   15679   15673   15675   15676   15679   15673   15675   15677
   15679   15673   15675   15678   15679   15682   15685   15688
   15679   15682   15685   15687   15679   15682   15685   15686
   15680   15679   15682   15685   15680   15679   15682   15684
   15680   15679   15682   15683   15681   15679   15682   15685
   15681   15679   15682   15684   15681   15679   15682   15683
   15682   15685   15688   15694   15682   15685   15688   15690
   15682   15685   15688   15689   15683   15682   15685   15688
   15683   15682   15685   15687   15683   15682   15685   15686
   15684   15682   15685   15688   15684   15682   15685   15687
   15684   15682   15685   15686   15685   15688   15694   15697
   15685   15688   15694   15696   15685   15688   15694   15695
   15685   15688   15690   15693   15685   15688   15690   15692
   15685   15688   15690   15691   15686   15685   15688   15694
   15686   15685   15688   15690   15686   15685   15688   15689
   15687   15685   15688   15694   15687   15685   15688   15690
   15687   15685   15688   15689   15689   15688   15694   15697
   15689   15688   15694   15696   15689   15688   15694   15695
   15689   15688   15690   15693   15689   15688   15690   15692
   15689   15688   15690   15691   15690   15688   15694   15697
   15690   15688   15694   15696   15690   15688   15694   15695
   15694   15688   15690   15691   15694   15688   15690   15692
   15694   15688   15690   15693   15698   15702   15705   15706
   15698   15702   15705   15736   15736   15741   15744   15698
   15743   15741   15744   15698   15742   15741   15744   15698
   15699   15698   15702   15705   15699   15698   15702   15704
   15699   15698   15702   15703   15699   15698   15744   15741
   15699   15698   15744   15746   15699   15698   15744   15745
   15699   15698   15700   15701   15700   15698   15702   15705
   15700   15698   15702   15704   15700   15698   15702   15703
   15700   15698   15744   15741   15700   15698   15744   15746
   15700   15698   15744   15745   15702   15698   15700   15701
   15744   15698   15700   15701   15702   15705   15706   15708
   15702   15705   15706   15707   15702   15705   15736   15734
   15702   15705   15736   15737   15702   15705   15736   15741
   15702   15698   15744   15741   15702   15698   15744   15746
   15702   15698   15744   15745   15703   15702   15705   15706
   15703   15702   15705   15736   15744   15698   15702   15703
   15704   15702   15705   15706   15704   15702   15705   15736
   15744   15698   15702   15704   15705   15706   15708   15711
   15705   15706   15708   15710   15705   15706   15708   15709
   15731   15734   15736   15705   15735   15734   15736   15705
   15711   15734   15736   15705   15705   15736   15737   15740
   15705   15736   15737   15739   15705   15736   15737   15738
   15705   15736   15741   15743   15705   15736   15741   15742
   15705   15736   15741   15744   15744   15698   15702   15705
   15706   15708   15711   15713   15706   15708   15711   15734
   15706   15708   15711   15712   15706   15705   15736   15734
   15706   15705   15736   15737   15706   15705   15736   15741
   15707   15706   15708   15711   15707   15706   15708   15710
   15707   15706   15708   15709   15736   15705   15706   15707
   15708   15711   15713   15715   15708   15711   15713   15723
   15708   15711   15713   15714   15708   15711   15734   15731
   15708   15711   15734   15736   15708   15711   15734   15735
   15736   15705   15706   15708   15709   15708   15711   15713
   15709   15708   15711   15734   15709   15708   15711   15712
   15710   15708   15711   15713   15710   15708   15711   15734
   15710   15708   15711   15712   15711   15713   15715   15718
   15711   15713   15715   15717   15711   15713   15715   15716
   15711   15713   15723   15721   15711   15713   15723   15724
   15711   15713   15723   15728   15733   15731   15734   15711
   15732   15731   15734   15711   15728   15731   15734   15711
   15711   15734   15736   15737   15711   15734   15736   15741
   15712   15711   15713   15715   15712   15711   15713   15723
   15712   15711   15713   15714   15712   15711   15734   15731
   15712   15711   15734   15736   15712   15711   15734   15735
   15713   15715   15718   15721   15713   15715   15718   15720
   15713   15715   15718   15719   15747   15721   15723   15713
   15722   15721   15723   15713   15718   15721   15723   15713
   15713   15723   15724   15727   15713   15723   15724   15726
   15713   15723   15724   15725   15713   15723   15728   15731
   15713   15723   15728   15730   15713   15723   15728   15729
   15713   15711   15734   15731   15713   15711   15734   15736
   15713   15711   15734   15735   15714   15713   15715   15718
   15714   15713   15715   15717   15714   15713   15715   15716
   15714   15713   15723   15721   15714   15713   15723   15724
   15714   15713   15723   15728   15734   15711   15713   15714
   15715   15718   15721   15747   15715   15718   15721   15723
   15715   15718   15721   15722   15715   15713   15723   15721
   15715   15713   15723   15724   15715   15713   15723   15728
   15734   15711   15713   15715   15716   15715   15718   15721
   15716   15715   15718   15720   15716   15715   15718   15719
   15723   15713   15715   15716   15717   15715   15718   15721
   15717   15715   15718   15720   15717   15715   15718   15719
   15723   15713   15715   15717   15718   15721   15747   15753
   15718   15721   15747   15749   15718   15721   15747   15748
   15718   15721   15723   15724   15718   15721   15723   15728
   15723   15713   15715   15718   15719   15718   15721   15747
   15719   15718   15721   15723   15719   15718   15721   15722
   15720   15718   15721   15747   15720   15718   15721   15723
   15720   15718   15721   15722   15721   15747   15753   15756
   15721   15747   15753   15755   15721   15747   15753   15754
   15721   15747   15749   15752   15721   15747   15749   15751
   15721   15747   15749   15750   15721   15723   15724   15727
   15721   15723   15724   15726   15721   15723   15724   15725
   15721   15723   15728   15731   15721   15723   15728   15730
   15721   15723   15728   15729   15722   15721   15747   15753
   15722   15721   15747   15749   15722   15721   15747   15748
   15722   15721   15723   15724   15722   15721   15723   15728
   15723   15721   15747   15753   15723   15721   15747   15749
   15723   15721   15747   15748   15723   15728   15731   15734
   15723   15728   15731   15733   15723   15728   15731   15732
   15734   15711   15713   15723   15747   15721   15723   15724
   15724   15723   15728   15731   15724   15723   15728   15730
   15724   15723   15728   15729   15728   15723   15724   15725
   15728   15723   15724   15726   15728   15723   15724   15727
   15728   15731   15734   15736   15728   15731   15734   15735
   15747   15721   15723   15728   15729   15728   15731   15734
   15729   15728   15731   15733   15729   15728   15731   15732
   15730   15728   15731   15734   15730   15728   15731   15733
   15730   15728   15731   15732   15731   15734   15736   15737
   15731   15734   15736   15741   15732   15731   15734   15736
   15732   15731   15734   15735   15733   15731   15734   15736
   15733   15731   15734   15735   15734   15736   15737   15740
   15734   15736   15737   15739   15734   15736   15737   15738
   15734   15736   15741   15743   15734   15736   15741   15742
   15734   15736   15741   15744   15735   15734   15736   15737
   15735   15734   15736   15741   15736   15741   15744   15746
   15736   15741   15744   15745   15737   15736   15741   15743
   15737   15736   15741   15742   15737   15736   15741   15744
   15741   15736   15737   15738   15741   15736   15737   15739
   15741   15736   15737   15740   15742   15741   15744   15746
   15742   15741   15744   15745   15743   15741   15744   15746
   15743   15741   15744   15745   15747   15753   15756   15759
   15747   15753   15756   15758   15747   15753   15756   15757
   15748   15747   15753   15756   15748   15747   15753   15755
   15748   15747   15753   15754   15748   15747   15749   15752
   15748   15747   15749   15751   15748   15747   15749   15750
   15749   15747   15753   15756   15749   15747   15753   15755
   15749   15747   15753   15754   15753   15747   15749   15750
   15753   15747   15749   15751   15753   15747   15749   15752
   15753   15756   15759   15762   15753   15756   15759   15761
   15753   15756   15759   15760   15754   15753   15756   15759
   15754   15753   15756   15758   15754   15753   15756   15757
   15755   15753   15756   15759   15755   15753   15756   15758
   15755   15753   15756   15757   15756   15759   15762   15768
   15756   15759   15762   15764   15756   15759   15762   15763
   15757   15756   15759   15762   15757   15756   15759   15761
   15757   15756   15759   15760   15758   15756   15759   15762
   15758   15756   15759   15761   15758   15756   15759   15760
   15759   15762   15768   15771   15759   15762   15768   15770
   15759   15762   15768   15769   15759   15762   15764   15767
   15759   15762   15764   15766   15759   15762   15764   15765
   15760   15759   15762   15768   15760   15759   15762   15764
   15760   15759   15762   15763   15761   15759   15762   15768
   15761   15759   15762   15764   15761   15759   15762   15763
   15763   15762   15768   15771   15763   15762   15768   15770
   15763   15762   15768   15769   15763   15762   15764   15767
   15763   15762   15764   15766   15763   15762   15764   15765
   15764   15762   15768   15771   15764   15762   15768   15770
   15764   15762   15768   15769   15768   15762   15764   15765
   15768   15762   15764   15766   15768   15762   15764   15767
   15772   15776   15779   15780   15772   15776   15779   15810
   15810   15815   15818   15772   15817   15815   15818   15772
   15816   15815   15818   15772   15773   15772   15776   15779
   15773   15772   15776   15778   15773   15772   15776   15777
   15773   15772   15818   15815   15773   15772   15818   15820
   15773   15772   15818   15819   15773   15772   15774   15775
   15774   15772   15776   15779   15774   15772   15776   15778
   15774   15772   15776   15777   15774   15772   15818   15815
   15774   15772   15818   15820   15774   15772   15818   15819
   15776   15772   15774   15775   15818   15772   15774   15775
   15776   15779   15780   15782   15776   15779   15780   15781
   15776   15779   15810   15808   15776   15779   15810   15811
   15776   15779   15810   15815   15776   15772   15818   15815
   15776   15772   15818   15820   15776   15772   15818   15819
   15777   15776   15779   15780   15777   15776   15779   15810
   15818   15772   15776   15777   15778   15776   15779   15780
   15778   15776   15779   15810   15818   15772   15776   15778
   15779   15780   15782   15785   15779   15780   15782   15784
   15779   15780   15782   15783   15805   15808   15810   15779
   15809   15808   15810   15779   15785   15808   15810   15779
   15779   15810   15811   15814   15779   15810   15811   15813
   15779   15810   15811   15812   15779   15810   15815   15817
   15779   15810   15815   15816   15779   15810   15815   15818
   15818   15772   15776   15779   15780   15782   15785   15787
   15780   15782   15785   15808   15780   15782   15785   15786
   15780   15779   15810   15808   15780   15779   15810   15811
   15780   15779   15810   15815   15781   15780   15782   15785
   15781   15780   15782   15784   15781   15780   15782   15783
   15810   15779   15780   15781   15782   15785   15787   15789
   15782   15785   15787   15797   15782   15785   15787   15788
   15782   15785   15808   15805   15782   15785   15808   15810
   15782   15785   15808   15809   15810   15779   15780   15782
   15783   15782   15785   15787   15783   15782   15785   15808
   15783   15782   15785   15786   15784   15782   15785   15787
   15784   15782   15785   15808   15784   15782   15785   15786
   15785   15787   15789   15792   15785   15787   15789   15791
   15785   15787   15789   15790   15785   15787   15797   15795
   15785   15787   15797   15798   15785   15787   15797   15802
   15807   15805   15808   15785   15806   15805   15808   15785
   15802   15805   15808   15785   15785   15808   15810   15811
   15785   15808   15810   15815   15786   15785   15787   15789
   15786   15785   15787   15797   15786   15785   15787   15788
   15786   15785   15808   15805   15786   15785   15808   15810
   15786   15785   15808   15809   15787   15789   15792   15795
   15787   15789   15792   15794   15787   15789   15792   15793
   15821   15795   15797   15787   15796   15795   15797   15787
   15792   15795   15797   15787   15787   15797   15798   15801
   15787   15797   15798   15800   15787   15797   15798   15799
   15787   15797   15802   15805   15787   15797   15802   15804
   15787   15797   15802   15803   15787   15785   15808   15805
   15787   15785   15808   15810   15787   15785   15808   15809
   15788   15787   15789   15792   15788   15787   15789   15791
   15788   15787   15789   15790   15788   15787   15797   15795
   15788   15787   15797   15798   15788   15787   15797   15802
   15808   15785   15787   15788   15789   15792   15795   15821
   15789   15792   15795   15797   15789   15792   15795   15796
   15789   15787   15797   15795   15789   15787   15797   15798
   15789   15787   15797   15802   15808   15785   15787   15789
   15790   15789   15792   15795   15790   15789   15792   15794
   15790   15789   15792   15793   15797   15787   15789   15790
   15791   15789   15792   15795   15791   15789   15792   15794
   15791   15789   15792   15793   15797   15787   15789   15791
   15792   15795   15821   15827   15792   15795   15821   15823
   15792   15795   15821   15822   15792   15795   15797   15798
   15792   15795   15797   15802   15797   15787   15789   15792
   15793   15792   15795   15821   15793   15792   15795   15797
   15793   15792   15795   15796   15794   15792   15795   15821
   15794   15792   15795   15797   15794   15792   15795   15796
   15795   15821   15827   15830   15795   15821   15827   15829
   15795   15821   15827   15828   15795   15821   15823   15826
   15795   15821   15823   15825   15795   15821   15823   15824
   15795   15797   15798   15801   15795   15797   15798   15800
   15795   15797   15798   15799   15795   15797   15802   15805
   15795   15797   15802   15804   15795   15797   15802   15803
   15796   15795   15821   15827   15796   15795   15821   15823
   15796   15795   15821   15822   15796   15795   15797   15798
   15796   15795   15797   15802   15797   15795   15821   15827
   15797   15795   15821   15823   15797   15795   15821   15822
   15797   15802   15805   15808   15797   15802   15805   15807
   15797   15802   15805   15806   15808   15785   15787   15797
   15821   15795   15797   15798   15798   15797   15802   15805
   15798   15797   15802   15804   15798   15797   15802   15803
   15802   15797   15798   15799   15802   15797   15798   15800
   15802   15797   15798   15801   15802   15805   15808   15810
   15802   15805   15808   15809   15821   15795   15797   15802
   15803   15802   15805   15808   15803   15802   15805   15807
   15803   15802   15805   15806   15804   15802   15805   15808
   15804   15802   15805   15807   15804   15802   15805   15806
   15805   15808   15810   15811   15805   15808   15810   15815
   15806   15805   15808   15810   15806   15805   15808   15809
   15807   15805   15808   15810   15807   15805   15808   15809
   15808   15810   15811   15814   15808   15810   15811   15813
   15808   15810   15811   15812   15808   15810   15815   15817
   15808   15810   15815   15816   15808   15810   15815   15818
   15809   15808   15810   15811   15809   15808   15810   15815
   15810   15815   15818   15820   15810   15815   15818   15819
   15811   15810   15815   15817   15811   15810   15815   15816
   15811   15810   15815   15818   15815   15810   15811   15812
   15815   15810   15811   15813   15815   15810   15811   15814
   15816   15815   15818   15820   15816   15815   15818   15819
   15817   15815   15818   15820   15817   15815   15818   15819
   15821   15827   15830   15833   15821   15827   15830   15832
   15821   15827   15830   15831   15822   15821   15827   15830
   15822   15821   15827   15829   15822   15821   15827   15828
   15822   15821   15823   15826   15822   15821   15823   15825
   15822   15821   15823   15824   15823   15821   15827   15830
   15823   15821   15827   15829   15823   15821   15827   15828
   15827   15821   15823   15824   15827   15821   15823   15825
   15827   15821   15823   15826   15827   15830   15833   15836
   15827   15830   15833   15835   15827   15830   15833   15834
   15828   15827   15830   15833   15828   15827   15830   15832
   15828   15827   15830   15831   15829   15827   15830   15833
   15829   15827   15830   15832   15829   15827   15830   15831
   15830   15833   15836   15842   15830   15833   15836   15838
   15830   15833   15836   15837   15831   15830   15833   15836
   15831   15830   15833   15835   15831   15830   15833   15834
   15832   15830   15833   15836   15832   15830   15833   15835
   15832   15830   15833   15834   15833   15836   15842   15845
   15833   15836   15842   15844   15833   15836   15842   15843
   15833   15836   15838   15841   15833   15836   15838   15840
   15833   15836   15838   15839   15834   15833   15836   15842
   15834   15833   15836   15838   15834   15833   15836   15837
   15835   15833   15836   15842   15835   15833   15836   15838
   15835   15833   15836   15837   15837   15836   15842   15845
   15837   15836   15842   15844   15837   15836   15842   15843
   15837   15836   15838   15841   15837   15836   15838   15840
   15837   15836   15838   15839   15838   15836   15842   15845
   15838   15836   15842   15844   15838   15836   15842   15843
   15842   15836   15838   15839   15842   15836   15838   15840
   15842   15836   15838   15841   15846   15850   15853   15854
   15846   15850   15853   15884   15884   15889   15892   15846
   15891   15889   15892   15846   15890   15889   15892   15846
   15847   15846   15850   15853   15847   15846   15850   15852
   15847   15846   15850   15851   15847   15846   15892   15889
   15847   15846   15892   15894   15847   15846   15892   15893
   15847   15846   15848   15849   15848   15846   15850   15853
   15848   15846   15850   15852   15848   15846   15850   15851
   15848   15846   15892   15889   15848   15846   15892   15894
   15848   15846   15892   15893   15850   15846   15848   15849
   15892   15846   15848   15849   15850   15853   15854   15856
   15850   15853   15854   15855   15850   15853   15884   15882
   15850   15853   15884   15885   15850   15853   15884   15889
   15850   15846   15892   15889   15850   15846   15892   15894
   15850   15846   15892   15893   15851   15850   15853   15854
   15851   15850   15853   15884   15892   15846   15850   15851
   15852   15850   15853   15854   15852   15850   15853   15884
   15892   15846   15850   15852   15853   15854   15856   15859
   15853   15854   15856   15858   15853   15854   15856   15857
   15879   15882   15884   15853   15883   15882   15884   15853
   15859   15882   15884   15853   15853   15884   15885   15888
   15853   15884   15885   15887   15853   15884   15885   15886
   15853   15884   15889   15891   15853   15884   15889   15890
   15853   15884   15889   15892   15892   15846   15850   15853
   15854   15856   15859   15861   15854   15856   15859   15882
   15854   15856   15859   15860   15854   15853   15884   15882
   15854   15853   15884   15885   15854   15853   15884   15889
   15855   15854   15856   15859   15855   15854   15856   15858
   15855   15854   15856   15857   15884   15853   15854   15855
   15856   15859   15861   15863   15856   15859   15861   15871
   15856   15859   15861   15862   15856   15859   15882   15879
   15856   15859   15882   15884   15856   15859   15882   15883
   15884   15853   15854   15856   15857   15856   15859   15861
   15857   15856   15859   15882   15857   15856   15859   15860
   15858   15856   15859   15861   15858   15856   15859   15882
   15858   15856   15859   15860   15859   15861   15863   15866
   15859   15861   15863   15865   15859   15861   15863   15864
   15859   15861   15871   15869   15859   15861   15871   15872
   15859   15861   15871   15876   15881   15879   15882   15859
   15880   15879   15882   15859   15876   15879   15882   15859
   15859   15882   15884   15885   15859   15882   15884   15889
   15860   15859   15861   15863   15860   15859   15861   15871
   15860   15859   15861   15862   15860   15859   15882   15879
   15860   15859   15882   15884   15860   15859   15882   15883
   15861   15863   15866   15869   15861   15863   15866   15868
   15861   15863   15866   15867   15895   15869   15871   15861
   15870   15869   15871   15861   15866   15869   15871   15861
   15861   15871   15872   15875   15861   15871   15872   15874
   15861   15871   15872   15873   15861   15871   15876   15879
   15861   15871   15876   15878   15861   15871   15876   15877
   15861   15859   15882   15879   15861   15859   15882   15884
   15861   15859   15882   15883   15862   15861   15863   15866
   15862   15861   15863   15865   15862   15861   15863   15864
   15862   15861   15871   15869   15862   15861   15871   15872
   15862   15861   15871   15876   15882   15859   15861   15862
   15863   15866   15869   15895   15863   15866   15869   15871
   15863   15866   15869   15870   15863   15861   15871   15869
   15863   15861   15871   15872   15863   15861   15871   15876
   15882   15859   15861   15863   15864   15863   15866   15869
   15864   15863   15866   15868   15864   15863   15866   15867
   15871   15861   15863   15864   15865   15863   15866   15869
   15865   15863   15866   15868   15865   15863   15866   15867
   15871   15861   15863   15865   15866   15869   15895   15901
   15866   15869   15895   15897   15866   15869   15895   15896
   15866   15869   15871   15872   15866   15869   15871   15876
   15871   15861   15863   15866   15867   15866   15869   15895
   15867   15866   15869   15871   15867   15866   15869   15870
   15868   15866   15869   15895   15868   15866   15869   15871
   15868   15866   15869   15870   15869   15895   15901   15904
   15869   15895   15901   15903   15869   15895   15901   15902
   15869   15895   15897   15900   15869   15895   15897   15899
   15869   15895   15897   15898   15869   15871   15872   15875
   15869   15871   15872   15874   15869   15871   15872   15873
   15869   15871   15876   15879   15869   15871   15876   15878
   15869   15871   15876   15877   15870   15869   15895   15901
   15870   15869   15895   15897   15870   15869   15895   15896
   15870   15869   15871   15872   15870   15869   15871   15876
   15871   15869   15895   15901   15871   15869   15895   15897
   15871   15869   15895   15896   15871   15876   15879   15882
   15871   15876   15879   15881   15871   15876   15879   15880
   15882   15859   15861   15871   15895   15869   15871   15872
   15872   15871   15876   15879   15872   15871   15876   15878
   15872   15871   15876   15877   15876   15871   15872   15873
   15876   15871   15872   15874   15876   15871   15872   15875
   15876   15879   15882   15884   15876   15879   15882   15883
   15895   15869   15871   15876   15877   15876   15879   15882
   15877   15876   15879   15881   15877   15876   15879   15880
   15878   15876   15879   15882   15878   15876   15879   15881
   15878   15876   15879   15880   15879   15882   15884   15885
   15879   15882   15884   15889   15880   15879   15882   15884
   15880   15879   15882   15883   15881   15879   15882   15884
   15881   15879   15882   15883   15882   15884   15885   15888
   15882   15884   15885   15887   15882   15884   15885   15886
   15882   15884   15889   15891   15882   15884   15889   15890
   15882   15884   15889   15892   15883   15882   15884   15885
   15883   15882   15884   15889   15884   15889   15892   15894
   15884   15889   15892   15893   15885   15884   15889   15891
   15885   15884   15889   15890   15885   15884   15889   15892
   15889   15884   15885   15886   15889   15884   15885   15887
   15889   15884   15885   15888   15890   15889   15892   15894
   15890   15889   15892   15893   15891   15889   15892   15894
   15891   15889   15892   15893   15895   15901   15904   15907
   15895   15901   15904   15906   15895   15901   15904   15905
   15896   15895   15901   15904   15896   15895   15901   15903
   15896   15895   15901   15902   15896   15895   15897   15900
   15896   15895   15897   15899   15896   15895   15897   15898
   15897   15895   15901   15904   15897   15895   15901   15903
   15897   15895   15901   15902   15901   15895   15897   15898
   15901   15895   15897   15899   15901   15895   15897   15900
   15901   15904   15907   15910   15901   15904   15907   15909
   15901   15904   15907   15908   15902   15901   15904   15907
   15902   15901   15904   15906   15902   15901   15904   15905
   15903   15901   15904   15907   15903   15901   15904   15906
   15903   15901   15904   15905   15904   15907   15910   15916
   15904   15907   15910   15912   15904   15907   15910   15911
   15905   15904   15907   15910   15905   15904   15907   15909
   15905   15904   15907   15908   15906   15904   15907   15910
   15906   15904   15907   15909   15906   15904   15907   15908
   15907   15910   15916   15919   15907   15910   15916   15918
   15907   15910   15916   15917   15907   15910   15912   15915
   15907   15910   15912   15914   15907   15910   15912   15913
   15908   15907   15910   15916   15908   15907   15910   15912
   15908   15907   15910   15911   15909   15907   15910   15916
   15909   15907   15910   15912   15909   15907   15910   15911
   15911   15910   15916   15919   15911   15910   15916   15918
   15911   15910   15916   15917   15911   15910   15912   15915
   15911   15910   15912   15914   15911   15910   15912   15913
   15912   15910   15916   15919   15912   15910   15916   15918
   15912   15910   15916   15917   15916   15910   15912   15913
   15916   15910   15912   15914   15916   15910   15912   15915
   15920   15924   15927   15928   15920   15924   15927   15958
   15958   15963   15966   15920   15965   15963   15966   15920
   15964   15963   15966   15920   15921   15920   15924   15927
   15921   15920   15924   15926   15921   15920   15924   15925
   15921   15920   15966   15963   15921   15920   15966   15968
   15921   15920   15966   15967   15921   15920   15922   15923
   15922   15920   15924   15927   15922   15920   15924   15926
   15922   15920   15924   15925   15922   15920   15966   15963
   15922   15920   15966   15968   15922   15920   15966   15967
   15924   15920   15922   15923   15966   15920   15922   15923
   15924   15927   15928   15930   15924   15927   15928   15929
   15924   15927   15958   15956   15924   15927   15958   15959
   15924   15927   15958   15963   15924   15920   15966   15963
   15924   15920   15966   15968   15924   15920   15966   15967
   15925   15924   15927   15928   15925   15924   15927   15958
   15966   15920   15924   15925   15926   15924   15927   15928
   15926   15924   15927   15958   15966   15920   15924   15926
   15927   15928   15930   15933   15927   15928   15930   15932
   15927   15928   15930   15931   15953   15956   15958   15927
   15957   15956   15958   15927   15933   15956   15958   15927
   15927   15958   15959   15962   15927   15958   15959   15961
   15927   15958   15959   15960   15927   15958   15963   15965
   15927   15958   15963   15964   15927   15958   15963   15966
   15966   15920   15924   15927   15928   15930   15933   15935
   15928   15930   15933   15956   15928   15930   15933   15934
   15928   15927   15958   15956   15928   15927   15958   15959
   15928   15927   15958   15963   15929   15928   15930   15933
   15929   15928   15930   15932   15929   15928   15930   15931
   15958   15927   15928   15929   15930   15933   15935   15937
   15930   15933   15935   15945   15930   15933   15935   15936
   15930   15933   15956   15953   15930   15933   15956   15958
   15930   15933   15956   15957   15958   15927   15928   15930
   15931   15930   15933   15935   15931   15930   15933   15956
   15931   15930   15933   15934   15932   15930   15933   15935
   15932   15930   15933   15956   15932   15930   15933   15934
   15933   15935   15937   15940   15933   15935   15937   15939
   15933   15935   15937   15938   15933   15935   15945   15943
   15933   15935   15945   15946   15933   15935   15945   15950
   15955   15953   15956   15933   15954   15953   15956   15933
   15950   15953   15956   15933   15933   15956   15958   15959
   15933   15956   15958   15963   15934   15933   15935   15937
   15934   15933   15935   15945   15934   15933   15935   15936
   15934   15933   15956   15953   15934   15933   15956   15958
   15934   15933   15956   15957   15935   15937   15940   15943
   15935   15937   15940   15942   15935   15937   15940   15941
   15969   15943   15945   15935   15944   15943   15945   15935
   15940   15943   15945   15935   15935   15945   15946   15949
   15935   15945   15946   15948   15935   15945   15946   15947
   15935   15945   15950   15953   15935   15945   15950   15952
   15935   15945   15950   15951   15935   15933   15956   15953
   15935   15933   15956   15958   15935   15933   15956   15957
   15936   15935   15937   15940   15936   15935   15937   15939
   15936   15935   15937   15938   15936   15935   15945   15943
   15936   15935   15945   15946   15936   15935   15945   15950
   15956   15933   15935   15936   15937   15940   15943   15969
   15937   15940   15943   15945   15937   15940   15943   15944
   15937   15935   15945   15943   15937   15935   15945   15946
   15937   15935   15945   15950   15956   15933   15935   15937
   15938   15937   15940   15943   15938   15937   15940   15942
   15938   15937   15940   15941   15945   15935   15937   15938
   15939   15937   15940   15943   15939   15937   15940   15942
   15939   15937   15940   15941   15945   15935   15937   15939
   15940   15943   15969   15975   15940   15943   15969   15971
   15940   15943   15969   15970   15940   15943   15945   15946
   15940   15943   15945   15950   15945   15935   15937   15940
   15941   15940   15943   15969   15941   15940   15943   15945
   15941   15940   15943   15944   15942   15940   15943   15969
   15942   15940   15943   15945   15942   15940   15943   15944
   15943   15969   15975   15978   15943   15969   15975   15977
   15943   15969   15975   15976   15943   15969   15971   15974
   15943   15969   15971   15973   15943   15969   15971   15972
   15943   15945   15946   15949   15943   15945   15946   15948
   15943   15945   15946   15947   15943   15945   15950   15953
   15943   15945   15950   15952   15943   15945   15950   15951
   15944   15943   15969   15975   15944   15943   15969   15971
   15944   15943   15969   15970   15944   15943   15945   15946
   15944   15943   15945   15950   15945   15943   15969   15975
   15945   15943   15969   15971   15945   15943   15969   15970
   15945   15950   15953   15956   15945   15950   15953   15955
   15945   15950   15953   15954   15956   15933   15935   15945
   15969   15943   15945   15946   15946   15945   15950   15953
   15946   15945   15950   15952   15946   15945   15950   15951
   15950   15945   15946   15947   15950   15945   15946   15948
   15950   15945   15946   15949   15950   15953   15956   15958
   15950   15953   15956   15957   15969   15943   15945   15950
   15951   15950   15953   15956   15951   15950   15953   15955
   15951   15950   15953   15954   15952   15950   15953   15956
   15952   15950   15953   15955   15952   15950   15953   15954
   15953   15956   15958   15959   15953   15956   15958   15963
   15954   15953   15956   15958   15954   15953   15956   15957
   15955   15953   15956   15958   15955   15953   15956   15957
   15956   15958   15959   15962   15956   15958   15959   15961
   15956   15958   15959   15960   15956   15958   15963   15965
   15956   15958   15963   15964   15956   15958   15963   15966
   15957   15956   15958   15959   15957   15956   15958   15963
   15958   15963   15966   15968   15958   15963   15966   15967
   15959   15958   15963   15965   15959   15958   15963   15964
   15959   15958   15963   15966   15963   15958   15959   15960
   15963   15958   15959   15961   15963   15958   15959   15962
   15964   15963   15966   15968   15964   15963   15966   15967
   15965   15963   15966   15968   15965   15963   15966   15967
   15969   15975   15978   15981   15969   15975   15978   15980
   15969   15975   15978   15979   15970   15969   15975   15978
   15970   15969   15975   15977   15970   15969   15975   15976
   15970   15969   15971   15974   15970   15969   15971   15973
   15970   15969   15971   15972   15971   15969   15975   15978
   15971   15969   15975   15977   15971   15969   15975   15976
   15975   15969   15971   15972   15975   15969   15971   15973
   15975   15969   15971   15974   15975   15978   15981   15984
   15975   15978   15981   15983   15975   15978   15981   15982
   15976   15975   15978   15981   15976   15975   15978   15980
   15976   15975   15978   15979   15977   15975   15978   15981
   15977   15975   15978   15980   15977   15975   15978   15979
   15978   15981   15984   15990   15978   15981   15984   15986
   15978   15981   15984   15985   15979   15978   15981   15984
   15979   15978   15981   15983   15979   15978   15981   15982
   15980   15978   15981   15984   15980   15978   15981   15983
   15980   15978   15981   15982   15981   15984   15990   15993
   15981   15984   15990   15992   15981   15984   15990   15991
   15981   15984   15986   15989   15981   15984   15986   15988
   15981   15984   15986   15987   15982   15981   15984   15990
   15982   15981   15984   15986   15982   15981   15984   15985
   15983   15981   15984   15990   15983   15981   15984   15986
   15983   15981   15984   15985   15985   15984   15990   15993
   15985   15984   15990   15992   15985   15984   15990   15991
   15985   15984   15986   15989   15985   15984   15986   15988
   15985   15984   15986   15987   15986   15984   15990   15993
   15986   15984   15990   15992   15986   15984   15990   15991
   15990   15984   15986   15987   15990   15984   15986   15988
   15990   15984   15986   15989   15994   15998   16001   16002
   15994   15998   16001   16032   16032   16037   16040   15994
   16039   16037   16040   15994   16038   16037   16040   15994
   15995   15994   15998   16001   15995   15994   15998   16000
   15995   15994   15998   15999   15995   15994   16040   16037
   15995   15994   16040   16042   15995   15994   16040   16041
   15995   15994   15996   15997   15996   15994   15998   16001
   15996   15994   15998   16000   15996   15994   15998   15999
   15996   15994   16040   16037   15996   15994   16040   16042
   15996   15994   16040   16041   15998   15994   15996   15997
   16040   15994   15996   15997   15998   16001   16002   16004
   15998   16001   16002   16003   15998   16001   16032   16030
   15998   16001   16032   16033   15998   16001   16032   16037
   15998   15994   16040   16037   15998   15994   16040   16042
   15998   15994   16040   16041   15999   15998   16001   16002
   15999   15998   16001   16032   16040   15994   15998   15999
   16000   15998   16001   16002   16000   15998   16001   16032
   16040   15994   15998   16000   16001   16002   16004   16007
   16001   16002   16004   16006   16001   16002   16004   16005
   16027   16030   16032   16001   16031   16030   16032   16001
   16007   16030   16032   16001   16001   16032   16033   16036
   16001   16032   16033   16035   16001   16032   16033   16034
   16001   16032   16037   16039   16001   16032   16037   16038
   16001   16032   16037   16040   16040   15994   15998   16001
   16002   16004   16007   16009   16002   16004   16007   16030
   16002   16004   16007   16008   16002   16001   16032   16030
   16002   16001   16032   16033   16002   16001   16032   16037
   16003   16002   16004   16007   16003   16002   16004   16006
   16003   16002   16004   16005   16032   16001   16002   16003
   16004   16007   16009   16011   16004   16007   16009   16019
   16004   16007   16009   16010   16004   16007   16030   16027
   16004   16007   16030   16032   16004   16007   16030   16031
   16032   16001   16002   16004   16005   16004   16007   16009
   16005   16004   16007   16030   16005   16004   16007   16008
   16006   16004   16007   16009   16006   16004   16007   16030
   16006   16004   16007   16008   16007   16009   16011   16014
   16007   16009   16011   16013   16007   16009   16011   16012
   16007   16009   16019   16017   16007   16009   16019   16020
   16007   16009   16019   16024   16029   16027   16030   16007
   16028   16027   16030   16007   16024   16027   16030   16007
   16007   16030   16032   16033   16007   16030   16032   16037
   16008   16007   16009   16011   16008   16007   16009   16019
   16008   16007   16009   16010   16008   16007   16030   16027
   16008   16007   16030   16032   16008   16007   16030   16031
   16009   16011   16014   16017   16009   16011   16014   16016
   16009   16011   16014   16015   16043   16017   16019   16009
   16018   16017   16019   16009   16014   16017   16019   16009
   16009   16019   16020   16023   16009   16019   16020   16022
   16009   16019   16020   16021   16009   16019   16024   16027
   16009   16019   16024   16026   16009   16019   16024   16025
   16009   16007   16030   16027   16009   16007   16030   16032
   16009   16007   16030   16031   16010   16009   16011   16014
   16010   16009   16011   16013   16010   16009   16011   16012
   16010   16009   16019   16017   16010   16009   16019   16020
   16010   16009   16019   16024   16030   16007   16009   16010
   16011   16014   16017   16043   16011   16014   16017   16019
   16011   16014   16017   16018   16011   16009   16019   16017
   16011   16009   16019   16020   16011   16009   16019   16024
   16030   16007   16009   16011   16012   16011   16014   16017
   16012   16011   16014   16016   16012   16011   16014   16015
   16019   16009   16011   16012   16013   16011   16014   16017
   16013   16011   16014   16016   16013   16011   16014   16015
   16019   16009   16011   16013   16014   16017   16043   16049
   16014   16017   16043   16045   16014   16017   16043   16044
   16014   16017   16019   16020   16014   16017   16019   16024
   16019   16009   16011   16014   16015   16014   16017   16043
   16015   16014   16017   16019   16015   16014   16017   16018
   16016   16014   16017   16043   16016   16014   16017   16019
   16016   16014   16017   16018   16017   16043   16049   16052
   16017   16043   16049   16051   16017   16043   16049   16050
   16017   16043   16045   16048   16017   16043   16045   16047
   16017   16043   16045   16046   16017   16019   16020   16023
   16017   16019   16020   16022   16017   16019   16020   16021
   16017   16019   16024   16027   16017   16019   16024   16026
   16017   16019   16024   16025   16018   16017   16043   16049
   16018   16017   16043   16045   16018   16017   16043   16044
   16018   16017   16019   16020   16018   16017   16019   16024
   16019   16017   16043   16049   16019   16017   16043   16045
   16019   16017   16043   16044   16019   16024   16027   16030
   16019   16024   16027   16029   16019   16024   16027   16028
   16030   16007   16009   16019   16043   16017   16019   16020
   16020   16019   16024   16027   16020   16019   16024   16026
   16020   16019   16024   16025   16024   16019   16020   16021
   16024   16019   16020   16022   16024   16019   16020   16023
   16024   16027   16030   16032   16024   16027   16030   16031
   16043   16017   16019   16024   16025   16024   16027   16030
   16025   16024   16027   16029   16025   16024   16027   16028
   16026   16024   16027   16030   16026   16024   16027   16029
   16026   16024   16027   16028   16027   16030   16032   16033
   16027   16030   16032   16037   16028   16027   16030   16032
   16028   16027   16030   16031   16029   16027   16030   16032
   16029   16027   16030   16031   16030   16032   16033   16036
   16030   16032   16033   16035   16030   16032   16033   16034
   16030   16032   16037   16039   16030   16032   16037   16038
   16030   16032   16037   16040   16031   16030   16032   16033
   16031   16030   16032   16037   16032   16037   16040   16042
   16032   16037   16040   16041   16033   16032   16037   16039
   16033   16032   16037   16038   16033   16032   16037   16040
   16037   16032   16033   16034   16037   16032   16033   16035
   16037   16032   16033   16036   16038   16037   16040   16042
   16038   16037   16040   16041   16039   16037   16040   16042
   16039   16037   16040   16041   16043   16049   16052   16055
   16043   16049   16052   16054   16043   16049   16052   16053
   16044   16043   16049   16052   16044   16043   16049   16051
   16044   16043   16049   16050   16044   16043   16045   16048
   16044   16043   16045   16047   16044   16043   16045   16046
   16045   16043   16049   16052   16045   16043   16049   16051
   16045   16043   16049   16050   16049   16043   16045   16046
   16049   16043   16045   16047   16049   16043   16045   16048
   16049   16052   16055   16058   16049   16052   16055   16057
   16049   16052   16055   16056   16050   16049   16052   16055
   16050   16049   16052   16054   16050   16049   16052   16053
   16051   16049   16052   16055   16051   16049   16052   16054
   16051   16049   16052   16053   16052   16055   16058   16064
   16052   16055   16058   16060   16052   16055   16058   16059
   16053   16052   16055   16058   16053   16052   16055   16057
   16053   16052   16055   16056   16054   16052   16055   16058
   16054   16052   16055   16057   16054   16052   16055   16056
   16055   16058   16064   16067   16055   16058   16064   16066
   16055   16058   16064   16065   16055   16058   16060   16063
   16055   16058   16060   16062   16055   16058   16060   16061
   16056   16055   16058   16064   16056   16055   16058   16060
   16056   16055   16058   16059   16057   16055   16058   16064
   16057   16055   16058   16060   16057   16055   16058   16059
   16059   16058   16064   16067   16059   16058   16064   16066
   16059   16058   16064   16065   16059   16058   16060   16063
   16059   16058   16060   16062   16059   16058   16060   16061
   16060   16058   16064   16067   16060   16058   16064   16066
   16060   16058   16064   16065   16064   16058   16060   16061
   16064   16058   16060   16062   16064   16058   16060   16063
   16068   16072   16075   16076   16068   16072   16075   16106
   16106   16111   16114   16068   16113   16111   16114   16068
   16112   16111   16114   16068   16069   16068   16072   16075
   16069   16068   16072   16074   16069   16068   16072   16073
   16069   16068   16114   16111   16069   16068   16114   16116
   16069   16068   16114   16115   16069   16068   16070   16071
   16070   16068   16072   16075   16070   16068   16072   16074
   16070   16068   16072   16073   16070   16068   16114   16111
   16070   16068   16114   16116   16070   16068   16114   16115
   16072   16068   16070   16071   16114   16068   16070   16071
   16072   16075   16076   16078   16072   16075   16076   16077
   16072   16075   16106   16104   16072   16075   16106   16107
   16072   16075   16106   16111   16072   16068   16114   16111
   16072   16068   16114   16116   16072   16068   16114   16115
   16073   16072   16075   16076   16073   16072   16075   16106
   16114   16068   16072   16073   16074   16072   16075   16076
   16074   16072   16075   16106   16114   16068   16072   16074
   16075   16076   16078   16081   16075   16076   16078   16080
   16075   16076   16078   16079   16101   16104   16106   16075
   16105   16104   16106   16075   16081   16104   16106   16075
   16075   16106   16107   16110   16075   16106   16107   16109
   16075   16106   16107   16108   16075   16106   16111   16113
   16075   16106   16111   16112   16075   16106   16111   16114
   16114   16068   16072   16075   16076   16078   16081   16083
   16076   16078   16081   16104   16076   16078   16081   16082
   16076   16075   16106   16104   16076   16075   16106   16107
   16076   16075   16106   16111   16077   16076   16078   16081
   16077   16076   16078   16080   16077   16076   16078   16079
   16106   16075   16076   16077   16078   16081   16083   16085
   16078   16081   16083   16093   16078   16081   16083   16084
   16078   16081   16104   16101   16078   16081   16104   16106
   16078   16081   16104   16105   16106   16075   16076   16078
   16079   16078   16081   16083   16079   16078   16081   16104
   16079   16078   16081   16082   16080   16078   16081   16083
   16080   16078   16081   16104   16080   16078   16081   16082
   16081   16083   16085   16088   16081   16083   16085   16087
   16081   16083   16085   16086   16081   16083   16093   16091
   16081   16083   16093   16094   16081   16083   16093   16098
   16103   16101   16104   16081   16102   16101   16104   16081
   16098   16101   16104   16081   16081   16104   16106   16107
   16081   16104   16106   16111   16082   16081   16083   16085
   16082   16081   16083   16093   16082   16081   16083   16084
   16082   16081   16104   16101   16082   16081   16104   16106
   16082   16081   16104   16105   16083   16085   16088   16091
   16083   16085   16088   16090   16083   16085   16088   16089
   16117   16091   16093   16083   16092   16091   16093   16083
   16088   16091   16093   16083   16083   16093   16094   16097
   16083   16093   16094   16096   16083   16093   16094   16095
   16083   16093   16098   16101   16083   16093   16098   16100
   16083   16093   16098   16099   16083   16081   16104   16101
   16083   16081   16104   16106   16083   16081   16104   16105
   16084   16083   16085   16088   16084   16083   16085   16087
   16084   16083   16085   16086   16084   16083   16093   16091
   16084   16083   16093   16094   16084   16083   16093   16098
   16104   16081   16083   16084   16085   16088   16091   16117
   16085   16088   16091   16093   16085   16088   16091   16092
   16085   16083   16093   16091   16085   16083   16093   16094
   16085   16083   16093   16098   16104   16081   16083   16085
   16086   16085   16088   16091   16086   16085   16088   16090
   16086   16085   16088   16089   16093   16083   16085   16086
   16087   16085   16088   16091   16087   16085   16088   16090
   16087   16085   16088   16089   16093   16083   16085   16087
   16088   16091   16117   16123   16088   16091   16117   16119
   16088   16091   16117   16118   16088   16091   16093   16094
   16088   16091   16093   16098   16093   16083   16085   16088
   16089   16088   16091   16117   16089   16088   16091   16093
   16089   16088   16091   16092   16090   16088   16091   16117
   16090   16088   16091   16093   16090   16088   16091   16092
   16091   16117   16123   16126   16091   16117   16123   16125
   16091   16117   16123   16124   16091   16117   16119   16122
   16091   16117   16119   16121   16091   16117   16119   16120
   16091   16093   16094   16097   16091   16093   16094   16096
   16091   16093   16094   16095   16091   16093   16098   16101
   16091   16093   16098   16100   16091   16093   16098   16099
   16092   16091   16117   16123   16092   16091   16117   16119
   16092   16091   16117   16118   16092   16091   16093   16094
   16092   16091   16093   16098   16093   16091   16117   16123
   16093   16091   16117   16119   16093   16091   16117   16118
   16093   16098   16101   16104   16093   16098   16101   16103
   16093   16098   16101   16102   16104   16081   16083   16093
   16117   16091   16093   16094   16094   16093   16098   16101
   16094   16093   16098   16100   16094   16093   16098   16099
   16098   16093   16094   16095   16098   16093   16094   16096
   16098   16093   16094   16097   16098   16101   16104   16106
   16098   16101   16104   16105   16117   16091   16093   16098
   16099   16098   16101   16104   16099   16098   16101   16103
   16099   16098   16101   16102   16100   16098   16101   16104
   16100   16098   16101   16103   16100   16098   16101   16102
   16101   16104   16106   16107   16101   16104   16106   16111
   16102   16101   16104   16106   16102   16101   16104   16105
   16103   16101   16104   16106   16103   16101   16104   16105
   16104   16106   16107   16110   16104   16106   16107   16109
   16104   16106   16107   16108   16104   16106   16111   16113
   16104   16106   16111   16112   16104   16106   16111   16114
   16105   16104   16106   16107   16105   16104   16106   16111
   16106   16111   16114   16116   16106   16111   16114   16115
   16107   16106   16111   16113   16107   16106   16111   16112
   16107   16106   16111   16114   16111   16106   16107   16108
   16111   16106   16107   16109   16111   16106   16107   16110
   16112   16111   16114   16116   16112   16111   16114   16115
   16113   16111   16114   16116   16113   16111   16114   16115
   16117   16123   16126   16129   16117   16123   16126   16128
   16117   16123   16126   16127   16118   16117   16123   16126
   16118   16117   16123   16125   16118   16117   16123   16124
   16118   16117   16119   16122   16118   16117   16119   16121
   16118   16117   16119   16120   16119   16117   16123   16126
   16119   16117   16123   16125   16119   16117   16123   16124
   16123   16117   16119   16120   16123   16117   16119   16121
   16123   16117   16119   16122   16123   16126   16129   16132
   16123   16126   16129   16131   16123   16126   16129   16130
   16124   16123   16126   16129   16124   16123   16126   16128
   16124   16123   16126   16127   16125   16123   16126   16129
   16125   16123   16126   16128   16125   16123   16126   16127
   16126   16129   16132   16138   16126   16129   16132   16134
   16126   16129   16132   16133   16127   16126   16129   16132
   16127   16126   16129   16131   16127   16126   16129   16130
   16128   16126   16129   16132   16128   16126   16129   16131
   16128   16126   16129   16130   16129   16132   16138   16141
   16129   16132   16138   16140   16129   16132   16138   16139
   16129   16132   16134   16137   16129   16132   16134   16136
   16129   16132   16134   16135   16130   16129   16132   16138
   16130   16129   16132   16134   16130   16129   16132   16133
   16131   16129   16132   16138   16131   16129   16132   16134
   16131   16129   16132   16133   16133   16132   16138   16141
   16133   16132   16138   16140   16133   16132   16138   16139
   16133   16132   16134   16137   16133   16132   16134   16136
   16133   16132   16134   16135   16134   16132   16138   16141
   16134   16132   16138   16140   16134   16132   16138   16139
   16138   16132   16134   16135   16138   16132   16134   16136
   16138   16132   16134   16137   16142   16146   16149   16150
   16142   16146   16149   16180   16180   16185   16188   16142
   16187   16185   16188   16142   16186   16185   16188   16142
   16143   16142   16146   16149   16143   16142   16146   16148
   16143   16142   16146   16147   16143   16142   16188   16185
   16143   16142   16188   16190   16143   16142   16188   16189
   16143   16142   16144   16145   16144   16142   16146   16149
   16144   16142   16146   16148   16144   16142   16146   16147
   16144   16142   16188   16185   16144   16142   16188   16190
   16144   16142   16188   16189   16146   16142   16144   16145
   16188   16142   16144   16145   16146   16149   16150   16152
   16146   16149   16150   16151   16146   16149   16180   16178
   16146   16149   16180   16181   16146   16149   16180   16185
   16146   16142   16188   16185   16146   16142   16188   16190
   16146   16142   16188   16189   16147   16146   16149   16150
   16147   16146   16149   16180   16188   16142   16146   16147
   16148   16146   16149   16150   16148   16146   16149   16180
   16188   16142   16146   16148   16149   16150   16152   16155
   16149   16150   16152   16154   16149   16150   16152   16153
   16175   16178   16180   16149   16179   16178   16180   16149
   16155   16178   16180   16149   16149   16180   16181   16184
   16149   16180   16181   16183   16149   16180   16181   16182
   16149   16180   16185   16187   16149   16180   16185   16186
   16149   16180   16185   16188   16188   16142   16146   16149
   16150   16152   16155   16157   16150   16152   16155   16178
   16150   16152   16155   16156   16150   16149   16180   16178
   16150   16149   16180   16181   16150   16149   16180   16185
   16151   16150   16152   16155   16151   16150   16152   16154
   16151   16150   16152   16153   16180   16149   16150   16151
   16152   16155   16157   16159   16152   16155   16157   16167
   16152   16155   16157   16158   16152   16155   16178   16175
   16152   16155   16178   16180   16152   16155   16178   16179
   16180   16149   16150   16152   16153   16152   16155   16157
   16153   16152   16155   16178   16153   16152   16155   16156
   16154   16152   16155   16157   16154   16152   16155   16178
   16154   16152   16155   16156   16155   16157   16159   16162
   16155   16157   16159   16161   16155   16157   16159   16160
   16155   16157   16167   16165   16155   16157   16167   16168
   16155   16157   16167   16172   16177   16175   16178   16155
   16176   16175   16178   16155   16172   16175   16178   16155
   16155   16178   16180   16181   16155   16178   16180   16185
   16156   16155   16157   16159   16156   16155   16157   16167
   16156   16155   16157   16158   16156   16155   16178   16175
   16156   16155   16178   16180   16156   16155   16178   16179
   16157   16159   16162   16165   16157   16159   16162   16164
   16157   16159   16162   16163   16191   16165   16167   16157
   16166   16165   16167   16157   16162   16165   16167   16157
   16157   16167   16168   16171   16157   16167   16168   16170
   16157   16167   16168   16169   16157   16167   16172   16175
   16157   16167   16172   16174   16157   16167   16172   16173
   16157   16155   16178   16175   16157   16155   16178   16180
   16157   16155   16178   16179   16158   16157   16159   16162
   16158   16157   16159   16161   16158   16157   16159   16160
   16158   16157   16167   16165   16158   16157   16167   16168
   16158   16157   16167   16172   16178   16155   16157   16158
   16159   16162   16165   16191   16159   16162   16165   16167
   16159   16162   16165   16166   16159   16157   16167   16165
   16159   16157   16167   16168   16159   16157   16167   16172
   16178   16155   16157   16159   16160   16159   16162   16165
   16160   16159   16162   16164   16160   16159   16162   16163
   16167   16157   16159   16160   16161   16159   16162   16165
   16161   16159   16162   16164   16161   16159   16162   16163
   16167   16157   16159   16161   16162   16165   16191   16197
   16162   16165   16191   16193   16162   16165   16191   16192
   16162   16165   16167   16168   16162   16165   16167   16172
   16167   16157   16159   16162   16163   16162   16165   16191
   16163   16162   16165   16167   16163   16162   16165   16166
   16164   16162   16165   16191   16164   16162   16165   16167
   16164   16162   16165   16166   16165   16191   16197   16200
   16165   16191   16197   16199   16165   16191   16197   16198
   16165   16191   16193   16196   16165   16191   16193   16195
   16165   16191   16193   16194   16165   16167   16168   16171
   16165   16167   16168   16170   16165   16167   16168   16169
   16165   16167   16172   16175   16165   16167   16172   16174
   16165   16167   16172   16173   16166   16165   16191   16197
   16166   16165   16191   16193   16166   16165   16191   16192
   16166   16165   16167   16168   16166   16165   16167   16172
   16167   16165   16191   16197   16167   16165   16191   16193
   16167   16165   16191   16192   16167   16172   16175   16178
   16167   16172   16175   16177   16167   16172   16175   16176
   16178   16155   16157   16167   16191   16165   16167   16168
   16168   16167   16172   16175   16168   16167   16172   16174
   16168   16167   16172   16173   16172   16167   16168   16169
   16172   16167   16168   16170   16172   16167   16168   16171
   16172   16175   16178   16180   16172   16175   16178   16179
   16191   16165   16167   16172   16173   16172   16175   16178
   16173   16172   16175   16177   16173   16172   16175   16176
   16174   16172   16175   16178   16174   16172   16175   16177
   16174   16172   16175   16176   16175   16178   16180   16181
   16175   16178   16180   16185   16176   16175   16178   16180
   16176   16175   16178   16179   16177   16175   16178   16180
   16177   16175   16178   16179   16178   16180   16181   16184
   16178   16180   16181   16183   16178   16180   16181   16182
   16178   16180   16185   16187   16178   16180   16185   16186
   16178   16180   16185   16188   16179   16178   16180   16181
   16179   16178   16180   16185   16180   16185   16188   16190
   16180   16185   16188   16189   16181   16180   16185   16187
   16181   16180   16185   16186   16181   16180   16185   16188
   16185   16180   16181   16182   16185   16180   16181   16183
   16185   16180   16181   16184   16186   16185   16188   16190
   16186   16185   16188   16189   16187   16185   16188   16190
   16187   16185   16188   16189   16191   16197   16200   16203
   16191   16197   16200   16202   16191   16197   16200   16201
   16192   16191   16197   16200   16192   16191   16197   16199
   16192   16191   16197   16198   16192   16191   16193   16196
   16192   16191   16193   16195   16192   16191   16193   16194
   16193   16191   16197   16200   16193   16191   16197   16199
   16193   16191   16197   16198   16197   16191   16193   16194
   16197   16191   16193   16195   16197   16191   16193   16196
   16197   16200   16203   16206   16197   16200   16203   16205
   16197   16200   16203   16204   16198   16197   16200   16203
   16198   16197   16200   16202   16198   16197   16200   16201
   16199   16197   16200   16203   16199   16197   16200   16202
   16199   16197   16200   16201   16200   16203   16206   16212
   16200   16203   16206   16208   16200   16203   16206   16207
   16201   16200   16203   16206   16201   16200   16203   16205
   16201   16200   16203   16204   16202   16200   16203   16206
   16202   16200   16203   16205   16202   16200   16203   16204
   16203   16206   16212   16215   16203   16206   16212   16214
   16203   16206   16212   16213   16203   16206   16208   16211
   16203   16206   16208   16210   16203   16206   16208   16209
   16204   16203   16206   16212   16204   16203   16206   16208
   16204   16203   16206   16207   16205   16203   16206   16212
   16205   16203   16206   16208   16205   16203   16206   16207
   16207   16206   16212   16215   16207   16206   16212   16214
   16207   16206   16212   16213   16207   16206   16208   16211
   16207   16206   16208   16210   16207   16206   16208   16209
   16208   16206   16212   16215   16208   16206   16212   16214
   16208   16206   16212   16213   16212   16206   16208   16209
   16212   16206   16208   16210   16212   16206   16208   16211
   16216   16220   16223   16224   16216   16220   16223   16254
   16254   16259   16262   16216   16261   16259   16262   16216
   16260   16259   16262   16216   16217   16216   16220   16223
   16217   16216   16220   16222   16217   16216   16220   16221
   16217   16216   16262   16259   16217   16216   16262   16264
   16217   16216   16262   16263   16217   16216   16218   16219
   16218   16216   16220   16223   16218   16216   16220   16222
   16218   16216   16220   16221   16218   16216   16262   16259
   16218   16216   16262   16264   16218   16216   16262   16263
   16220   16216   16218   16219   16262   16216   16218   16219
   16220   16223   16224   16226   16220   16223   16224   16225
   16220   16223   16254   16252   16220   16223   16254   16255
   16220   16223   16254   16259   16220   16216   16262   16259
   16220   16216   16262   16264   16220   16216   16262   16263
   16221   16220   16223   16224   16221   16220   16223   16254
   16262   16216   16220   16221   16222   16220   16223   16224
   16222   16220   16223   16254   16262   16216   16220   16222
   16223   16224   16226   16229   16223   16224   16226   16228
   16223   16224   16226   16227   16249   16252   16254   16223
   16253   16252   16254   16223   16229   16252   16254   16223
   16223   16254   16255   16258   16223   16254   16255   16257
   16223   16254   16255   16256   16223   16254   16259   16261
   16223   16254   16259   16260   16223   16254   16259   16262
   16262   16216   16220   16223   16224   16226   16229   16231
   16224   16226   16229   16252   16224   16226   16229   16230
   16224   16223   16254   16252   16224   16223   16254   16255
   16224   16223   16254   16259   16225   16224   16226   16229
   16225   16224   16226   16228   16225   16224   16226   16227
   16254   16223   16224   16225   16226   16229   16231   16233
   16226   16229   16231   16241   16226   16229   16231   16232
   16226   16229   16252   16249   16226   16229   16252   16254
   16226   16229   16252   16253   16254   16223   16224   16226
   16227   16226   16229   16231   16227   16226   16229   16252
   16227   16226   16229   16230   16228   16226   16229   16231
   16228   16226   16229   16252   16228   16226   16229   16230
   16229   16231   16233   16236   16229   16231   16233   16235
   16229   16231   16233   16234   16229   16231   16241   16239
   16229   16231   16241   16242   16229   16231   16241   16246
   16251   16249   16252   16229   16250   16249   16252   16229
   16246   16249   16252   16229   16229   16252   16254   16255
   16229   16252   16254   16259   16230   16229   16231   16233
   16230   16229   16231   16241   16230   16229   16231   16232
   16230   16229   16252   16249   16230   16229   16252   16254
   16230   16229   16252   16253   16231   16233   16236   16239
   16231   16233   16236   16238   16231   16233   16236   16237
   16265   16239   16241   16231   16240   16239   16241   16231
   16236   16239   16241   16231   16231   16241   16242   16245
   16231   16241   16242   16244   16231   16241   16242   16243
   16231   16241   16246   16249   16231   16241   16246   16248
   16231   16241   16246   16247   16231   16229   16252   16249
   16231   16229   16252   16254   16231   16229   16252   16253
   16232   16231   16233   16236   16232   16231   16233   16235
   16232   16231   16233   16234   16232   16231   16241   16239
   16232   16231   16241   16242   16232   16231   16241   16246
   16252   16229   16231   16232   16233   16236   16239   16265
   16233   16236   16239   16241   16233   16236   16239   16240
   16233   16231   16241   16239   16233   16231   16241   16242
   16233   16231   16241   16246   16252   16229   16231   16233
   16234   16233   16236   16239   16234   16233   16236   16238
   16234   16233   16236   16237   16241   16231   16233   16234
   16235   16233   16236   16239   16235   16233   16236   16238
   16235   16233   16236   16237   16241   16231   16233   16235
   16236   16239   16265   16271   16236   16239   16265   16267
   16236   16239   16265   16266   16236   16239   16241   16242
   16236   16239   16241   16246   16241   16231   16233   16236
   16237   16236   16239   16265   16237   16236   16239   16241
   16237   16236   16239   16240   16238   16236   16239   16265
   16238   16236   16239   16241   16238   16236   16239   16240
   16239   16265   16271   16274   16239   16265   16271   16273
   16239   16265   16271   16272   16239   16265   16267   16270
   16239   16265   16267   16269   16239   16265   16267   16268
   16239   16241   16242   16245   16239   16241   16242   16244
   16239   16241   16242   16243   16239   16241   16246   16249
   16239   16241   16246   16248   16239   16241   16246   16247
   16240   16239   16265   16271   16240   16239   16265   16267
   16240   16239   16265   16266   16240   16239   16241   16242
   16240   16239   16241   16246   16241   16239   16265   16271
   16241   16239   16265   16267   16241   16239   16265   16266
   16241   16246   16249   16252   16241   16246   16249   16251
   16241   16246   16249   16250   16252   16229   16231   16241
   16265   16239   16241   16242   16242   16241   16246   16249
   16242   16241   16246   16248   16242   16241   16246   16247
   16246   16241   16242   16243   16246   16241   16242   16244
   16246   16241   16242   16245   16246   16249   16252   16254
   16246   16249   16252   16253   16265   16239   16241   16246
   16247   16246   16249   16252   16247   16246   16249   16251
   16247   16246   16249   16250   16248   16246   16249   16252
   16248   16246   16249   16251   16248   16246   16249   16250
   16249   16252   16254   16255   16249   16252   16254   16259
   16250   16249   16252   16254   16250   16249   16252   16253
   16251   16249   16252   16254   16251   16249   16252   16253
   16252   16254   16255   16258   16252   16254   16255   16257
   16252   16254   16255   16256   16252   16254   16259   16261
   16252   16254   16259   16260   16252   16254   16259   16262
   16253   16252   16254   16255   16253   16252   16254   16259
   16254   16259   16262   16264   16254   16259   16262   16263
   16255   16254   16259   16261   16255   16254   16259   16260
   16255   16254   16259   16262   16259   16254   16255   16256
   16259   16254   16255   16257   16259   16254   16255   16258
   16260   16259   16262   16264   16260   16259   16262   16263
   16261   16259   16262   16264   16261   16259   16262   16263
   16265   16271   16274   16277   16265   16271   16274   16276
   16265   16271   16274   16275   16266   16265   16271   16274
   16266   16265   16271   16273   16266   16265   16271   16272
   16266   16265   16267   16270   16266   16265   16267   16269
   16266   16265   16267   16268   16267   16265   16271   16274
   16267   16265   16271   16273   16267   16265   16271   16272
   16271   16265   16267   16268   16271   16265   16267   16269
   16271   16265   16267   16270   16271   16274   16277   16280
   16271   16274   16277   16279   16271   16274   16277   16278
   16272   16271   16274   16277   16272   16271   16274   16276
   16272   16271   16274   16275   16273   16271   16274   16277
   16273   16271   16274   16276   16273   16271   16274   16275
   16274   16277   16280   16286   16274   16277   16280   16282
   16274   16277   16280   16281   16275   16274   16277   16280
   16275   16274   16277   16279   16275   16274   16277   16278
   16276   16274   16277   16280   16276   16274   16277   16279
   16276   16274   16277   16278   16277   16280   16286   16289
   16277   16280   16286   16288   16277   16280   16286   16287
   16277   16280   16282   16285   16277   16280   16282   16284
   16277   16280   16282   16283   16278   16277   16280   16286
   16278   16277   16280   16282   16278   16277   16280   16281
   16279   16277   16280   16286   16279   16277   16280   16282
   16279   16277   16280   16281   16281   16280   16286   16289
   16281   16280   16286   16288   16281   16280   16286   16287
   16281   16280   16282   16285   16281   16280   16282   16284
   16281   16280   16282   16283   16282   16280   16286   16289
   16282   16280   16286   16288   16282   16280   16286   16287
   16286   16280   16282   16283   16286   16280   16282   16284
   16286   16280   16282   16285   16290   16294   16297   16298
   16290   16294   16297   16328   16328   16333   16336   16290
   16335   16333   16336   16290   16334   16333   16336   16290
   16291   16290   16294   16297   16291   16290   16294   16296
   16291   16290   16294   16295   16291   16290   16336   16333
   16291   16290   16336   16338   16291   16290   16336   16337
   16291   16290   16292   16293   16292   16290   16294   16297
   16292   16290   16294   16296   16292   16290   16294   16295
   16292   16290   16336   16333   16292   16290   16336   16338
   16292   16290   16336   16337   16294   16290   16292   16293
   16336   16290   16292   16293   16294   16297   16298   16300
   16294   16297   16298   16299   16294   16297   16328   16326
   16294   16297   16328   16329   16294   16297   16328   16333
   16294   16290   16336   16333   16294   16290   16336   16338
   16294   16290   16336   16337   16295   16294   16297   16298
   16295   16294   16297   16328   16336   16290   16294   16295
   16296   16294   16297   16298   16296   16294   16297   16328
   16336   16290   16294   16296   16297   16298   16300   16303
   16297   16298   16300   16302   16297   16298   16300   16301
   16323   16326   16328   16297   16327   16326   16328   16297
   16303   16326   16328   16297   16297   16328   16329   16332
   16297   16328   16329   16331   16297   16328   16329   16330
   16297   16328   16333   16335   16297   16328   16333   16334
   16297   16328   16333   16336   16336   16290   16294   16297
   16298   16300   16303   16305   16298   16300   16303   16326
   16298   16300   16303   16304   16298   16297   16328   16326
   16298   16297   16328   16329   16298   16297   16328   16333
   16299   16298   16300   16303   16299   16298   16300   16302
   16299   16298   16300   16301   16328   16297   16298   16299
   16300   16303   16305   16307   16300   16303   16305   16315
   16300   16303   16305   16306   16300   16303   16326   16323
   16300   16303   16326   16328   16300   16303   16326   16327
   16328   16297   16298   16300   16301   16300   16303   16305
   16301   16300   16303   16326   16301   16300   16303   16304
   16302   16300   16303   16305   16302   16300   16303   16326
   16302   16300   16303   16304   16303   16305   16307   16310
   16303   16305   16307   16309   16303   16305   16307   16308
   16303   16305   16315   16313   16303   16305   16315   16316
   16303   16305   16315   16320   16325   16323   16326   16303
   16324   16323   16326   16303   16320   16323   16326   16303
   16303   16326   16328   16329   16303   16326   16328   16333
   16304   16303   16305   16307   16304   16303   16305   16315
   16304   16303   16305   16306   16304   16303   16326   16323
   16304   16303   16326   16328   16304   16303   16326   16327
   16305   16307   16310   16313   16305   16307   16310   16312
   16305   16307   16310   16311   16339   16313   16315   16305
   16314   16313   16315   16305   16310   16313   16315   16305
   16305   16315   16316   16319   16305   16315   16316   16318
   16305   16315   16316   16317   16305   16315   16320   16323
   16305   16315   16320   16322   16305   16315   16320   16321
   16305   16303   16326   16323   16305   16303   16326   16328
   16305   16303   16326   16327   16306   16305   16307   16310
   16306   16305   16307   16309   16306   16305   16307   16308
   16306   16305   16315   16313   16306   16305   16315   16316
   16306   16305   16315   16320   16326   16303   16305   16306
   16307   16310   16313   16339   16307   16310   16313   16315
   16307   16310   16313   16314   16307   16305   16315   16313
   16307   16305   16315   16316   16307   16305   16315   16320
   16326   16303   16305   16307   16308   16307   16310   16313
   16308   16307   16310   16312   16308   16307   16310   16311
   16315   16305   16307   16308   16309   16307   16310   16313
   16309   16307   16310   16312   16309   16307   16310   16311
   16315   16305   16307   16309   16310   16313   16339   16345
   16310   16313   16339   16341   16310   16313   16339   16340
   16310   16313   16315   16316   16310   16313   16315   16320
   16315   16305   16307   16310   16311   16310   16313   16339
   16311   16310   16313   16315   16311   16310   16313   16314
   16312   16310   16313   16339   16312   16310   16313   16315
   16312   16310   16313   16314   16313   16339   16345   16348
   16313   16339   16345   16347   16313   16339   16345   16346
   16313   16339   16341   16344   16313   16339   16341   16343
   16313   16339   16341   16342   16313   16315   16316   16319
   16313   16315   16316   16318   16313   16315   16316   16317
   16313   16315   16320   16323   16313   16315   16320   16322
   16313   16315   16320   16321   16314   16313   16339   16345
   16314   16313   16339   16341   16314   16313   16339   16340
   16314   16313   16315   16316   16314   16313   16315   16320
   16315   16313   16339   16345   16315   16313   16339   16341
   16315   16313   16339   16340   16315   16320   16323   16326
   16315   16320   16323   16325   16315   16320   16323   16324
   16326   16303   16305   16315   16339   16313   16315   16316
   16316   16315   16320   16323   16316   16315   16320   16322
   16316   16315   16320   16321   16320   16315   16316   16317
   16320   16315   16316   16318   16320   16315   16316   16319
   16320   16323   16326   16328   16320   16323   16326   16327
   16339   16313   16315   16320   16321   16320   16323   16326
   16321   16320   16323   16325   16321   16320   16323   16324
   16322   16320   16323   16326   16322   16320   16323   16325
   16322   16320   16323   16324   16323   16326   16328   16329
   16323   16326   16328   16333   16324   16323   16326   16328
   16324   16323   16326   16327   16325   16323   16326   16328
   16325   16323   16326   16327   16326   16328   16329   16332
   16326   16328   16329   16331   16326   16328   16329   16330
   16326   16328   16333   16335   16326   16328   16333   16334
   16326   16328   16333   16336   16327   16326   16328   16329
   16327   16326   16328   16333   16328   16333   16336   16338
   16328   16333   16336   16337   16329   16328   16333   16335
   16329   16328   16333   16334   16329   16328   16333   16336
   16333   16328   16329   16330   16333   16328   16329   16331
   16333   16328   16329   16332   16334   16333   16336   16338
   16334   16333   16336   16337   16335   16333   16336   16338
   16335   16333   16336   16337   16339   16345   16348   16351
   16339   16345   16348   16350   16339   16345   16348   16349
   16340   16339   16345   16348   16340   16339   16345   16347
   16340   16339   16345   16346   16340   16339   16341   16344
   16340   16339   16341   16343   16340   16339   16341   16342
   16341   16339   16345   16348   16341   16339   16345   16347
   16341   16339   16345   16346   16345   16339   16341   16342
   16345   16339   16341   16343   16345   16339   16341   16344
   16345   16348   16351   16354   16345   16348   16351   16353
   16345   16348   16351   16352   16346   16345   16348   16351
   16346   16345   16348   16350   16346   16345   16348   16349
   16347   16345   16348   16351   16347   16345   16348   16350
   16347   16345   16348   16349   16348   16351   16354   16360
   16348   16351   16354   16356   16348   16351   16354   16355
   16349   16348   16351   16354   16349   16348   16351   16353
   16349   16348   16351   16352   16350   16348   16351   16354
   16350   16348   16351   16353   16350   16348   16351   16352
   16351   16354   16360   16363   16351   16354   16360   16362
   16351   16354   16360   16361   16351   16354   16356   16359
   16351   16354   16356   16358   16351   16354   16356   16357
   16352   16351   16354   16360   16352   16351   16354   16356
   16352   16351   16354   16355   16353   16351   16354   16360
   16353   16351   16354   16356   16353   16351   16354   16355
   16355   16354   16360   16363   16355   16354   16360   16362
   16355   16354   16360   16361   16355   16354   16356   16359
   16355   16354   16356   16358   16355   16354   16356   16357
   16356   16354   16360   16363   16356   16354   16360   16362
   16356   16354   16360   16361   16360   16354   16356   16357
   16360   16354   16356   16358   16360   16354   16356   16359
   16364   16377   16380   16382   16364   16377   16380   16381
   16364   16377   16380   16387   16365   16364   16369   16372
   16365   16364   16369   16371   16365   16364   16369   16370
   16365   16364   16373   16376   16365   16364   16373   16375
   16365   16364   16373   16374   16365   16364   16377   16379
   16365   16364   16377   16378   16365   16364   16377   16380
   16369   16364   16365   16366   16373   16364   16365   16366
   16377   16364   16365   16366   16369   16364   16365   16367
   16373   16364   16365   16367   16377   16364   16365   16367
   16369   16364   16365   16368   16373   16364   16365   16368
   16377   16364   16365   16368   16369   16364   16373   16376
   16369   16364   16373   16375   16369   16364   16373   16374
   16369   16364   16377   16379   16369   16364   16377   16378
   16369   16364   16377   16380   16373   16364   16369   16370
   16377   16364   16369   16370   16373   16364   16369   16371
   16377   16364   16369   16371   16373   16364   16369   16372
   16377   16364   16369   16372   16373   16364   16377   16379
   16373   16364   16377   16378   16373   16364   16377   16380
   16377   16364   16373   16374   16377   16364   16373   16375
   16377   16364   16373   16376   16377   16380   16387   16383
   16378   16377   16380   16382   16378   16377   16380   16381
   16378   16377   16380   16387   16379   16377   16380   16382
   16379   16377   16380   16381   16379   16377   16380   16387
   16385   16383   16387   16380   16384   16383   16387   16380
   16386   16383   16387   16380   16381   16380   16387   16383
   16382   16380   16387   16383   16383   16386   16388   16390
   16383   16386   16388   16389   16383   16386   16388   16393
   16384   16383   16386   16388   16385   16383   16386   16388
   16386   16388   16393   16391   16386   16388   16393   16394
   16386   16388   16393   16395   16387   16383   16386   16388
   16443   16391   16393   16388   16392   16391   16393   16388
   16388   16393   16395   16397   16388   16393   16395   16396
   16388   16393   16395   16399   16389   16388   16393   16391
   16389   16388   16393   16394   16389   16388   16393   16395
   16390   16388   16393   16391   16390   16388   16393   16394
   16390   16388   16393   16395   16391   16443   16445   16448
   16391   16443   16445   16447   16391   16443   16445   16446
   16391   16393   16395   16397   16391   16393   16395   16396
   16391   16393   16395   16399   16392   16391   16443   16444
   16392   16391   16443   16445   16392   16391   16393   16394
   16392   16391   16393   16395   16393   16391   16443   16444
   16393   16391   16443   16445   16393   16395   16397   16398
   16393   16395   16399   16401   16393   16395   16399   16400
   16443   16391   16393   16394   16394   16393   16395   16397
   16394   16393   16395   16396   16394   16393   16395   16399
   16443   16391   16393   16395   16395   16399   16401   16402
   16395   16399   16401   16403   16396   16395   16397   16398
   16396   16395   16399   16401   16396   16395   16399   16400
   16397   16395   16399   16401   16397   16395   16399   16400
   16399   16395   16397   16398   16399   16401   16403   16405
   16399   16401   16403   16404   16399   16401   16403   16406
   16400   16399   16401   16402   16400   16399   16401   16403
   16401   16403   16406   16408   16401   16403   16406   16407
   16401   16403   16406   16409   16402   16401   16403   16405
   16402   16401   16403   16404   16402   16401   16403   16406
   16403   16406   16409   16411   16403   16406   16409   16410
   16403   16406   16409   16412   16404   16403   16406   16408
   16404   16403   16406   16407   16404   16403   16406   16409
   16405   16403   16406   16408   16405   16403   16406   16407
   16405   16403   16406   16409   16406   16409   16412   16414
   16406   16409   16412   16413   16406   16409   16412   16415
   16407   16406   16409   16411   16407   16406   16409   16410
   16407   16406   16409   16412   16408   16406   16409   16411
   16408   16406   16409   16410   16408   16406   16409   16412
   16409   16412   16415   16417   16409   16412   16415   16416
   16409   16412   16415   16418   16410   16409   16412   16414
   16410   16409   16412   16413   16410   16409   16412   16415
   16411   16409   16412   16414   16411   16409   16412   16413
   16411   16409   16412   16415   16412   16415   16418   16420
   16412   16415   16418   16419   16412   16415   16418   16421
   16413   16412   16415   16417   16413   16412   16415   16416
   16413   16412   16415   16418   16414   16412   16415   16417
   16414   16412   16415   16416   16414   16412   16415   16418
   16415   16418   16421   16423   16415   16418   16421   16422
   16415   16418   16421   16424   16416   16415   16418   16420
   16416   16415   16418   16419   16416   16415   16418   16421
   16417   16415   16418   16420   16417   16415   16418   16419
   16417   16415   16418   16421   16418   16421   16424   16426
   16418   16421   16424   16425   16418   16421   16424   16427
   16419   16418   16421   16423   16419   16418   16421   16422
   16419   16418   16421   16424   16420   16418   16421   16423
   16420   16418   16421   16422   16420   16418   16421   16424
   16421   16424   16427   16429   16421   16424   16427   16428
   16421   16424   16427   16430   16422   16421   16424   16426
   16422   16421   16424   16425   16422   16421   16424   16427
   16423   16421   16424   16426   16423   16421   16424   16425
   16423   16421   16424   16427   16424   16427   16430   16432
   16424   16427   16430   16431   16424   16427   16430   16433
   16425   16424   16427   16429   16425   16424   16427   16428
   16425   16424   16427   16430   16426   16424   16427   16429
   16426   16424   16427   16428   16426   16424   16427   16430
   16427   16430   16433   16435   16427   16430   16433   16434
   16427   16430   16433   16436   16428   16427   16430   16432
   16428   16427   16430   16431   16428   16427   16430   16433
   16429   16427   16430   16432   16429   16427   16430   16431
   16429   16427   16430   16433   16430   16433   16436   16438
   16430   16433   16436   16437   16430   16433   16436   16439
   16431   16430   16433   16435   16431   16430   16433   16434
   16431   16430   16433   16436   16432   16430   16433   16435
   16432   16430   16433   16434   16432   16430   16433   16436
   16433   16436   16439   16442   16433   16436   16439   16441
   16433   16436   16439   16440   16434   16433   16436   16438
   16434   16433   16436   16437   16434   16433   16436   16439
   16435   16433   16436   16438   16435   16433   16436   16437
   16435   16433   16436   16439   16437   16436   16439   16442
   16437   16436   16439   16441   16437   16436   16439   16440
   16438   16436   16439   16442   16438   16436   16439   16441
   16438   16436   16439   16440   16443   16445   16448   16451
   16443   16445   16448   16450   16443   16445   16448   16449
   16444   16443   16445   16448   16444   16443   16445   16447
   16444   16443   16445   16446   16445   16448   16451   16454
   16445   16448   16451   16453   16445   16448   16451   16452
   16446   16445   16448   16451   16446   16445   16448   16450
   16446   16445   16448   16449   16447   16445   16448   16451
   16447   16445   16448   16450   16447   16445   16448   16449
   16448   16451   16454   16457   16448   16451   16454   16456
   16448   16451   16454   16455   16449   16448   16451   16454
   16449   16448   16451   16453   16449   16448   16451   16452
   16450   16448   16451   16454   16450   16448   16451   16453
   16450   16448   16451   16452   16451   16454   16457   16460
   16451   16454   16457   16459   16451   16454   16457   16458
   16452   16451   16454   16457   16452   16451   16454   16456
   16452   16451   16454   16455   16453   16451   16454   16457
   16453   16451   16454   16456   16453   16451   16454   16455
   16454   16457   16460   16463   16454   16457   16460   16462
   16454   16457   16460   16461   16455   16454   16457   16460
   16455   16454   16457   16459   16455   16454   16457   16458
   16456   16454   16457   16460   16456   16454   16457   16459
   16456   16454   16457   16458   16457   16460   16463   16466
   16457   16460   16463   16465   16457   16460   16463   16464
   16458   16457   16460   16463   16458   16457   16460   16462
   16458   16457   16460   16461   16459   16457   16460   16463
   16459   16457   16460   16462   16459   16457   16460   16461
   16460   16463   16466   16469   16460   16463   16466   16468
   16460   16463   16466   16467   16461   16460   16463   16466
   16461   16460   16463   16465   16461   16460   16463   16464
   16462   16460   16463   16466   16462   16460   16463   16465
   16462   16460   16463   16464   16463   16466   16469   16472
   16463   16466   16469   16471   16463   16466   16469   16470
   16464   16463   16466   16469   16464   16463   16466   16468
   16464   16463   16466   16467   16465   16463   16466   16469
   16465   16463   16466   16468   16465   16463   16466   16467
   16466   16469   16472   16475   16466   16469   16472   16474
   16466   16469   16472   16473   16467   16466   16469   16472
   16467   16466   16469   16471   16467   16466   16469   16470
   16468   16466   16469   16472   16468   16466   16469   16471
   16468   16466   16469   16470   16469   16472   16475   16478
   16469   16472   16475   16477   16469   16472   16475   16476
   16470   16469   16472   16475   16470   16469   16472   16474
   16470   16469   16472   16473   16471   16469   16472   16475
   16471   16469   16472   16474   16471   16469   16472   16473
   16472   16475   16478   16481   16472   16475   16478   16480
   16472   16475   16478   16479   16473   16472   16475   16478
   16473   16472   16475   16477   16473   16472   16475   16476
   16474   16472   16475   16478   16474   16472   16475   16477
   16474   16472   16475   16476   16475   16478   16481   16484
   16475   16478   16481   16483   16475   16478   16481   16482
   16476   16475   16478   16481   16476   16475   16478   16480
   16476   16475   16478   16479   16477   16475   16478   16481
   16477   16475   16478   16480   16477   16475   16478   16479
   16478   16481   16484   16487   16478   16481   16484   16486
   16478   16481   16484   16485   16479   16478   16481   16484
   16479   16478   16481   16483   16479   16478   16481   16482
   16480   16478   16481   16484   16480   16478   16481   16483
   16480   16478   16481   16482   16481   16484   16487   16490
   16481   16484   16487   16489   16481   16484   16487   16488
   16482   16481   16484   16487   16482   16481   16484   16486
   16482   16481   16484   16485   16483   16481   16484   16487
   16483   16481   16484   16486   16483   16481   16484   16485
   16485   16484   16487   16490   16485   16484   16487   16489
   16485   16484   16487   16488   16486   16484   16487   16490
   16486   16484   16487   16489   16486   16484   16487   16488
   16491   16492   16507   16513   16491   16492   16507   16509
   16491   16492   16507   16508   16492   16507   16513   16510
   16492   16491   16503   16506   16492   16491   16503   16505
   16492   16491   16503   16504   16492   16491   16499   16502
   16492   16491   16499   16501   16492   16491   16499   16500
   16492   16491   16495   16498   16492   16491   16495   16497
   16492   16491   16495   16496   16493   16492   16507   16513
   16493   16492   16507   16509   16493   16492   16507   16508
   16503   16491   16492   16493   16499   16491   16492   16493
   16495   16491   16492   16493   16494   16492   16507   16513
   16494   16492   16507   16509   16494   16492   16507   16508
   16503   16491   16492   16494   16499   16491   16492   16494
   16495   16491   16492   16494   16495   16491   16492   16507
   16495   16491   16503   16506   16495   16491   16503   16505
   16495   16491   16503   16504   16495   16491   16499   16502
   16495   16491   16499   16501   16495   16491   16499   16500
   16503   16491   16495   16496   16499   16491   16495   16496
   16503   16491   16495   16497   16499   16491   16495   16497
   16503   16491   16495   16498   16499   16491   16495   16498
   16499   16491   16492   16507   16499   16491   16503   16506
   16499   16491   16503   16505   16499   16491   16503   16504
   16503   16491   16499   16500   16503   16491   16499   16501
   16503   16491   16499   16502   16503   16491   16492   16507
   16512   16510   16513   16507   16511   16510   16513   16507
   16514   16510   16513   16507   16508   16507   16513   16510
   16509   16507   16513   16510   16510   16514   16515   16518
   16510   16514   16515   16517   16510   16514   16515   16516
   16511   16510   16514   16515   16512   16510   16514   16515
   16513   16510   16514   16515   16514   16515   16518   16520
   16514   16515   16518   16526   16514   16515   16518   16519
   16515   16518   16520   16521   16515   16518   16526   16529
   16515   16518   16526   16528   16515   16518   16526   16527
   16516   16515   16518   16520   16516   16515   16518   16526
   16516   16515   16518   16519   16517   16515   16518   16520
   16517   16515   16518   16526   16517   16515   16518   16519
   16518   16520   16521   16522   16518   16520   16521   16523
   16518   16526   16529   16530   16519   16518   16520   16521
   16519   16518   16526   16529   16519   16518   16526   16528
   16519   16518   16526   16527   16520   16521   16523   16535
   16520   16521   16523   16525   16520   16521   16523   16524
   16520   16518   16526   16529   16520   16518   16526   16528
   16520   16518   16526   16527   16521   16523   16535   16538
   16521   16523   16535   16537   16521   16523   16535   16536
   16526   16518   16520   16521   16522   16521   16523   16535
   16522   16521   16523   16525   16522   16521   16523   16524
   16523   16535   16538   16541   16523   16535   16538   16540
   16523   16535   16538   16539   16524   16523   16535   16538
   16524   16523   16535   16537   16524   16523   16535   16536
   16525   16523   16535   16538   16525   16523   16535   16537
   16525   16523   16535   16536   16526   16529   16530   16531
   16526   16529   16530   16532   16527   16526   16529   16530
   16528   16526   16529   16530   16529   16530   16532   16582
   16529   16530   16532   16534   16529   16530   16532   16533
   16530   16532   16582   16585   16530   16532   16582   16584
   16530   16532   16582   16583   16531   16530   16532   16582
   16531   16530   16532   16534   16531   16530   16532   16533
   16532   16582   16585   16588   16532   16582   16585   16587
   16532   16582   16585   16586   16533   16532   16582   16585
   16533   16532   16582   16584   16533   16532   16582   16583
   16534   16532   16582   16585   16534   16532   16582   16584
   16534   16532   16582   16583   16535   16538   16541   16544
   16535   16538   16541   16543   16535   16538   16541   16542
   16536   16535   16538   16541   16536   16535   16538   16540
   16536   16535   16538   16539   16537   16535   16538   16541
   16537   16535   16538   16540   16537   16535   16538   16539
   16538   16541   16544   16547   16538   16541   16544   16546
   16538   16541   16544   16545   16539   16538   16541   16544
   16539   16538   16541   16543   16539   16538   16541   16542
   16540   16538   16541   16544   16540   16538   16541   16543
   16540   16538   16541   16542   16541   16544   16547   16550
   16541   16544   16547   16549   16541   16544   16547   16548
   16542   16541   16544   16547   16542   16541   16544   16546
   16542   16541   16544   16545   16543   16541   16544   16547
   16543   16541   16544   16546   16543   16541   16544   16545
   16544   16547   16550   16553   16544   16547   16550   16552
   16544   16547   16550   16551   16545   16544   16547   16550
   16545   16544   16547   16549   16545   16544   16547   16548
   16546   16544   16547   16550   16546   16544   16547   16549
   16546   16544   16547   16548   16547   16550   16553   16555
   16547   16550   16553   16554   16548   16547   16550   16553
   16548   16547   16550   16552   16548   16547   16550   16551
   16549   16547   16550   16553   16549   16547   16550   16552
   16549   16547   16550   16551   16550   16553   16555   16557
   16550   16553   16555   16556   16551   16550   16553   16555
   16551   16550   16553   16554   16552   16550   16553   16555
   16552   16550   16553   16554   16553   16555   16557   16560
   16553   16555   16557   16559   16553   16555   16557   16558
   16554   16553   16555   16557   16554   16553   16555   16556
   16555   16557   16560   16563   16555   16557   16560   16562
   16555   16557   16560   16561   16556   16555   16557   16560
   16556   16555   16557   16559   16556   16555   16557   16558
   16557   16560   16563   16566   16557   16560   16563   16565
   16557   16560   16563   16564   16558   16557   16560   16563
   16558   16557   16560   16562   16558   16557   16560   16561
   16559   16557   16560   16563   16559   16557   16560   16562
   16559   16557   16560   16561   16560   16563   16566   16569
   16560   16563   16566   16568   16560   16563   16566   16567
   16561   16560   16563   16566   16561   16560   16563   16565
   16561   16560   16563   16564   16562   16560   16563   16566
   16562   16560   16563   16565   16562   16560   16563   16564
   16563   16566   16569   16572   16563   16566   16569   16571
   16563   16566   16569   16570   16564   16563   16566   16569
   16564   16563   16566   16568   16564   16563   16566   16567
   16565   16563   16566   16569   16565   16563   16566   16568
   16565   16563   16566   16567   16566   16569   16572   16575
   16566   16569   16572   16574   16566   16569   16572   16573
   16567   16566   16569   16572   16567   16566   16569   16571
   16567   16566   16569   16570   16568   16566   16569   16572
   16568   16566   16569   16571   16568   16566   16569   16570
   16569   16572   16575   16578   16569   16572   16575   16577
   16569   16572   16575   16576   16570   16569   16572   16575
   16570   16569   16572   16574   16570   16569   16572   16573
   16571   16569   16572   16575   16571   16569   16572   16574
   16571   16569   16572   16573   16572   16575   16578   16581
   16572   16575   16578   16580   16572   16575   16578   16579
   16573   16572   16575   16578   16573   16572   16575   16577
   16573   16572   16575   16576   16574   16572   16575   16578
   16574   16572   16575   16577   16574   16572   16575   16576
   16576   16575   16578   16581   16576   16575   16578   16580
   16576   16575   16578   16579   16577   16575   16578   16581
   16577   16575   16578   16580   16577   16575   16578   16579
   16582   16585   16588   16591   16582   16585   16588   16590
   16582   16585   16588   16589   16583   16582   16585   16588
   16583   16582   16585   16587   16583   16582   16585   16586
   16584   16582   16585   16588   16584   16582   16585   16587
   16584   16582   16585   16586   16585   16588   16591   16594
   16585   16588   16591   16593   16585   16588   16591   16592
   16586   16585   16588   16591   16586   16585   16588   16590
   16586   16585   16588   16589   16587   16585   16588   16591
   16587   16585   16588   16590   16587   16585   16588   16589
   16588   16591   16594   16597   16588   16591   16594   16596
   16588   16591   16594   16595   16589   16588   16591   16594
   16589   16588   16591   16593   16589   16588   16591   16592
   16590   16588   16591   16594   16590   16588   16591   16593
   16590   16588   16591   16592   16591   16594   16597   16600
   16591   16594   16597   16599   16591   16594   16597   16598
   16592   16591   16594   16597   16592   16591   16594   16596
   16592   16591   16594   16595   16593   16591   16594   16597
   16593   16591   16594   16596   16593   16591   16594   16595
   16594   16597   16600   16603   16594   16597   16600   16602
   16594   16597   16600   16601   16595   16594   16597   16600
   16595   16594   16597   16599   16595   16594   16597   16598
   16596   16594   16597   16600   16596   16594   16597   16599
   16596   16594   16597   16598   16597   16600   16603   16606
   16597   16600   16603   16605   16597   16600   16603   16604
   16598   16597   16600   16603   16598   16597   16600   16602
   16598   16597   16600   16601   16599   16597   16600   16603
   16599   16597   16600   16602   16599   16597   16600   16601
   16600   16603   16606   16609   16600   16603   16606   16608
   16600   16603   16606   16607   16601   16600   16603   16606
   16601   16600   16603   16605   16601   16600   16603   16604
   16602   16600   16603   16606   16602   16600   16603   16605
   16602   16600   16603   16604   16603   16606   16609   16612
   16603   16606   16609   16611   16603   16606   16609   16610
   16604   16603   16606   16609   16604   16603   16606   16608
   16604   16603   16606   16607   16605   16603   16606   16609
   16605   16603   16606   16608   16605   16603   16606   16607
   16606   16609   16612   16615   16606   16609   16612   16614
   16606   16609   16612   16613   16607   16606   16609   16612
   16607   16606   16609   16611   16607   16606   16609   16610
   16608   16606   16609   16612   16608   16606   16609   16611
   16608   16606   16609   16610   16609   16612   16615   16618
   16609   16612   16615   16617   16609   16612   16615   16616
   16610   16609   16612   16615   16610   16609   16612   16614
   16610   16609   16612   16613   16611   16609   16612   16615
   16611   16609   16612   16614   16611   16609   16612   16613
   16612   16615   16618   16621   16612   16615   16618   16620
   16612   16615   16618   16619   16613   16612   16615   16618
   16613   16612   16615   16617   16613   16612   16615   16616
   16614   16612   16615   16618   16614   16612   16615   16617
   16614   16612   16615   16616   16615   16618   16621   16624
   16615   16618   16621   16623   16615   16618   16621   16622
   16616   16615   16618   16621   16616   16615   16618   16620
   16616   16615   16618   16619   16617   16615   16618   16621
   16617   16615   16618   16620   16617   16615   16618   16619
   16619   16618   16621   16624   16619   16618   16621   16623
   16619   16618   16621   16622   16620   16618   16621   16624
   16620   16618   16621   16623   16620   16618   16621   16622
   16625   16629   16634   16640   16625   16629   16634   16636
   16625   16629   16634   16635   16625   16629   16631   16632
   16625   16629   16631   16633   16626   16625   16629   16634
   16626   16625   16629   16630   16626   16625   16629   16631
   16627   16625   16629   16634   16627   16625   16629   16630
   16627   16625   16629   16631   16628   16625   16629   16634
   16628   16625   16629   16630   16628   16625   16629   16631
   16629   16634   16640   16637   16630   16629   16634   16640
   16630   16629   16634   16636   16630   16629   16634   16635
   16630   16629   16631   16632   16630   16629   16631   16633
   16631   16629   16634   16640   16631   16629   16634   16636
   16631   16629   16634   16635   16634   16629   16631   16632
   16634   16629   16631   16633   16639   16637   16640   16634
   16638   16637   16640   16634   16641   16637   16640   16634
   16635   16634   16640   16637   16636   16634   16640   16637
   16637   16641   16642   16645   16637   16641   16642   16644
   16637   16641   16642   16643   16638   16637   16641   16642
   16639   16637   16641   16642   16640   16637   16641   16642
   16641   16642   16645   16647   16641   16642   16645   16653
   16641   16642   16645   16646   16642   16645   16647   16648
   16642   16645   16653   16656   16642   16645   16653   16655
   16642   16645   16653   16654   16643   16642   16645   16647
   16643   16642   16645   16653   16643   16642   16645   16646
   16644   16642   16645   16647   16644   16642   16645   16653
   16644   16642   16645   16646   16645   16647   16648   16649
   16645   16647   16648   16650   16645   16653   16656   16657
   16646   16645   16647   16648   16646   16645   16653   16656
   16646   16645   16653   16655   16646   16645   16653   16654
   16647   16648   16650   16662   16647   16648   16650   16652
   16647   16648   16650   16651   16647   16645   16653   16656
   16647   16645   16653   16655   16647   16645   16653   16654
   16648   16650   16662   16665   16648   16650   16662   16664
   16648   16650   16662   16663   16653   16645   16647   16648
   16649   16648   16650   16662   16649   16648   16650   16652
   16649   16648   16650   16651   16650   16662   16665   16668
   16650   16662   16665   16667   16650   16662   16665   16666
   16651   16650   16662   16665   16651   16650   16662   16664
   16651   16650   16662   16663   16652   16650   16662   16665
   16652   16650   16662   16664   16652   16650   16662   16663
   16653   16656   16657   16658   16653   16656   16657   16659
   16654   16653   16656   16657   16655   16653   16656   16657
   16656   16657   16659   16709   16656   16657   16659   16661
   16656   16657   16659   16660   16657   16659   16709   16712
   16657   16659   16709   16711   16657   16659   16709   16710
   16658   16657   16659   16709   16658   16657   16659   16661
   16658   16657   16659   16660   16659   16709   16712   16715
   16659   16709   16712   16714   16659   16709   16712   16713
   16660   16659   16709   16712   16660   16659   16709   16711
   16660   16659   16709   16710   16661   16659   16709   16712
   16661   16659   16709   16711   16661   16659   16709   16710
   16662   16665   16668   16671   16662   16665   16668   16670
   16662   16665   16668   16669   16663   16662   16665   16668
   16663   16662   16665   16667   16663   16662   16665   16666
   16664   16662   16665   16668   16664   16662   16665   16667
   16664   16662   16665   16666   16665   16668   16671   16674
   16665   16668   16671   16673   16665   16668   16671   16672
   16666   16665   16668   16671   16666   16665   16668   16670
   16666   16665   16668   16669   16667   16665   16668   16671
   16667   16665   16668   16670   16667   16665   16668   16669
   16668   16671   16674   16677   16668   16671   16674   16676
   16668   16671   16674   16675   16669   16668   16671   16674
   16669   16668   16671   16673   16669   16668   16671   16672
   16670   16668   16671   16674   16670   16668   16671   16673
   16670   16668   16671   16672   16671   16674   16677   16680
   16671   16674   16677   16679   16671   16674   16677   16678
   16672   16671   16674   16677   16672   16671   16674   16676
   16672   16671   16674   16675   16673   16671   16674   16677
   16673   16671   16674   16676   16673   16671   16674   16675
   16674   16677   16680   16682   16674   16677   16680   16681
   16675   16674   16677   16680   16675   16674   16677   16679
   16675   16674   16677   16678   16676   16674   16677   16680
   16676   16674   16677   16679   16676   16674   16677   16678
   16677   16680   16682   16684   16677   16680   16682   16683
   16678   16677   16680   16682   16678   16677   16680   16681
   16679   16677   16680   16682   16679   16677   16680   16681
   16680   16682   16684   16687   16680   16682   16684   16686
   16680   16682   16684   16685   16681   16680   16682   16684
   16681   16680   16682   16683   16682   16684   16687   16690
   16682   16684   16687   16689   16682   16684   16687   16688
   16683   16682   16684   16687   16683   16682   16684   16686
   16683   16682   16684   16685   16684   16687   16690   16693
   16684   16687   16690   16692   16684   16687   16690   16691
   16685   16684   16687   16690   16685   16684   16687   16689
   16685   16684   16687   16688   16686   16684   16687   16690
   16686   16684   16687   16689   16686   16684   16687   16688
   16687   16690   16693   16696   16687   16690   16693   16695
   16687   16690   16693   16694   16688   16687   16690   16693
   16688   16687   16690   16692   16688   16687   16690   16691
   16689   16687   16690   16693   16689   16687   16690   16692
   16689   16687   16690   16691   16690   16693   16696   16699
   16690   16693   16696   16698   16690   16693   16696   16697
   16691   16690   16693   16696   16691   16690   16693   16695
   16691   16690   16693   16694   16692   16690   16693   16696
   16692   16690   16693   16695   16692   16690   16693   16694
   16693   16696   16699   16702   16693   16696   16699   16701
   16693   16696   16699   16700   16694   16693   16696   16699
   16694   16693   16696   16698   16694   16693   16696   16697
   16695   16693   16696   16699   16695   16693   16696   16698
   16695   16693   16696   16697   16696   16699   16702   16705
   16696   16699   16702   16704   16696   16699   16702   16703
   16697   16696   16699   16702   16697   16696   16699   16701
   16697   16696   16699   16700   16698   16696   16699   16702
   16698   16696   16699   16701   16698   16696   16699   16700
   16699   16702   16705   16708   16699   16702   16705   16707
   16699   16702   16705   16706   16700   16699   16702   16705
   16700   16699   16702   16704   16700   16699   16702   16703
   16701   16699   16702   16705   16701   16699   16702   16704
   16701   16699   16702   16703   16703   16702   16705   16708
   16703   16702   16705   16707   16703   16702   16705   16706
   16704   16702   16705   16708   16704   16702   16705   16707
   16704   16702   16705   16706   16709   16712   16715   16718
   16709   16712   16715   16717   16709   16712   16715   16716
   16710   16709   16712   16715   16710   16709   16712   16714
   16710   16709   16712   16713   16711   16709   16712   16715
   16711   16709   16712   16714   16711   16709   16712   16713
   16712   16715   16718   16721   16712   16715   16718   16720
   16712   16715   16718   16719   16713   16712   16715   16718
   16713   16712   16715   16717   16713   16712   16715   16716
   16714   16712   16715   16718   16714   16712   16715   16717
   16714   16712   16715   16716   16715   16718   16721   16724
   16715   16718   16721   16723   16715   16718   16721   16722
   16716   16715   16718   16721   16716   16715   16718   16720
   16716   16715   16718   16719   16717   16715   16718   16721
   16717   16715   16718   16720   16717   16715   16718   16719
   16718   16721   16724   16727   16718   16721   16724   16726
   16718   16721   16724   16725   16719   16718   16721   16724
   16719   16718   16721   16723   16719   16718   16721   16722
   16720   16718   16721   16724   16720   16718   16721   16723
   16720   16718   16721   16722   16721   16724   16727   16730
   16721   16724   16727   16729   16721   16724   16727   16728
   16722   16721   16724   16727   16722   16721   16724   16726
   16722   16721   16724   16725   16723   16721   16724   16727
   16723   16721   16724   16726   16723   16721   16724   16725
   16724   16727   16730   16733   16724   16727   16730   16732
   16724   16727   16730   16731   16725   16724   16727   16730
   16725   16724   16727   16729   16725   16724   16727   16728
   16726   16724   16727   16730   16726   16724   16727   16729
   16726   16724   16727   16728   16727   16730   16733   16736
   16727   16730   16733   16735   16727   16730   16733   16734
   16728   16727   16730   16733   16728   16727   16730   16732
   16728   16727   16730   16731   16729   16727   16730   16733
   16729   16727   16730   16732   16729   16727   16730   16731
   16730   16733   16736   16739   16730   16733   16736   16738
   16730   16733   16736   16737   16731   16730   16733   16736
   16731   16730   16733   16735   16731   16730   16733   16734
   16732   16730   16733   16736   16732   16730   16733   16735
   16732   16730   16733   16734   16733   16736   16739   16742
   16733   16736   16739   16741   16733   16736   16739   16740
   16734   16733   16736   16739   16734   16733   16736   16738
   16734   16733   16736   16737   16735   16733   16736   16739
   16735   16733   16736   16738   16735   16733   16736   16737
   16736   16739   16742   16745   16736   16739   16742   16744
   16736   16739   16742   16743   16737   16736   16739   16742
   16737   16736   16739   16741   16737   16736   16739   16740
   16738   16736   16739   16742   16738   16736   16739   16741
   16738   16736   16739   16740   16739   16742   16745   16748
   16739   16742   16745   16747   16739   16742   16745   16746
   16740   16739   16742   16745   16740   16739   16742   16744
   16740   16739   16742   16743   16741   16739   16742   16745
   16741   16739   16742   16744   16741   16739   16742   16743
   16742   16745   16748   16751   16742   16745   16748   16750
   16742   16745   16748   16749   16743   16742   16745   16748
   16743   16742   16745   16747   16743   16742   16745   16746
   16744   16742   16745   16748   16744   16742   16745   16747
   16744   16742   16745   16746   16746   16745   16748   16751
   16746   16745   16748   16750   16746   16745   16748   16749
   16747   16745   16748   16751   16747   16745   16748   16750
   16747   16745   16748   16749   16752   16765   16768   16770
   16752   16765   16768   16769   16752   16765   16768   16775
   16753   16752   16757   16760   16753   16752   16757   16759
   16753   16752   16757   16758   16753   16752   16761   16764
   16753   16752   16761   16763   16753   16752   16761   16762
   16753   16752   16765   16767   16753   16752   16765   16766
   16753   16752   16765   16768   16757   16752   16753   16754
   16761   16752   16753   16754   16765   16752   16753   16754
   16757   16752   16753   16755   16761   16752   16753   16755
   16765   16752   16753   16755   16757   16752   16753   16756
   16761   16752   16753   16756   16765   16752   16753   16756
   16757   16752   16761   16764   16757   16752   16761   16763
   16757   16752   16761   16762   16757   16752   16765   16767
   16757   16752   16765   16766   16757   16752   16765   16768
   16761   16752   16757   16758   16765   16752   16757   16758
   16761   16752   16757   16759   16765   16752   16757   16759
   16761   16752   16757   16760   16765   16752   16757   16760
   16761   16752   16765   16767   16761   16752   16765   16766
   16761   16752   16765   16768   16765   16752   16761   16762
   16765   16752   16761   16763   16765   16752   16761   16764
   16765   16768   16775   16771   16766   16765   16768   16770
   16766   16765   16768   16769   16766   16765   16768   16775
   16767   16765   16768   16770   16767   16765   16768   16769
   16767   16765   16768   16775   16773   16771   16775   16768
   16772   16771   16775   16768   16774   16771   16775   16768
   16769   16768   16775   16771   16770   16768   16775   16771
   16771   16774   16776   16778   16771   16774   16776   16777
   16771   16774   16776   16781   16772   16771   16774   16776
   16773   16771   16774   16776   16774   16776   16781   16779
   16774   16776   16781   16782   16774   16776   16781   16783
   16775   16771   16774   16776   16831   16779   16781   16776
   16780   16779   16781   16776   16776   16781   16783   16785
   16776   16781   16783   16784   16776   16781   16783   16787
   16777   16776   16781   16779   16777   16776   16781   16782
   16777   16776   16781   16783   16778   16776   16781   16779
   16778   16776   16781   16782   16778   16776   16781   16783
   16779   16831   16833   16836   16779   16831   16833   16835
   16779   16831   16833   16834   16779   16781   16783   16785
   16779   16781   16783   16784   16779   16781   16783   16787
   16780   16779   16831   16832   16780   16779   16831   16833
   16780   16779   16781   16782   16780   16779   16781   16783
   16781   16779   16831   16832   16781   16779   16831   16833
   16781   16783   16785   16786   16781   16783   16787   16789
   16781   16783   16787   16788   16831   16779   16781   16782
   16782   16781   16783   16785   16782   16781   16783   16784
   16782   16781   16783   16787   16831   16779   16781   16783
   16783   16787   16789   16790   16783   16787   16789   16791
   16784   16783   16785   16786   16784   16783   16787   16789
   16784   16783   16787   16788   16785   16783   16787   16789
   16785   16783   16787   16788   16787   16783   16785   16786
   16787   16789   16791   16793   16787   16789   16791   16792
   16787   16789   16791   16794   16788   16787   16789   16790
   16788   16787   16789   16791   16789   16791   16794   16796
   16789   16791   16794   16795   16789   16791   16794   16797
   16790   16789   16791   16793   16790   16789   16791   16792
   16790   16789   16791   16794   16791   16794   16797   16799
   16791   16794   16797   16798   16791   16794   16797   16800
   16792   16791   16794   16796   16792   16791   16794   16795
   16792   16791   16794   16797   16793   16791   16794   16796
   16793   16791   16794   16795   16793   16791   16794   16797
   16794   16797   16800   16802   16794   16797   16800   16801
   16794   16797   16800   16803   16795   16794   16797   16799
   16795   16794   16797   16798   16795   16794   16797   16800
   16796   16794   16797   16799   16796   16794   16797   16798
   16796   16794   16797   16800   16797   16800   16803   16805
   16797   16800   16803   16804   16797   16800   16803   16806
   16798   16797   16800   16802   16798   16797   16800   16801
   16798   16797   16800   16803   16799   16797   16800   16802
   16799   16797   16800   16801   16799   16797   16800   16803
   16800   16803   16806   16808   16800   16803   16806   16807
   16800   16803   16806   16809   16801   16800   16803   16805
   16801   16800   16803   16804   16801   16800   16803   16806
   16802   16800   16803   16805   16802   16800   16803   16804
   16802   16800   16803   16806   16803   16806   16809   16811
   16803   16806   16809   16810   16803   16806   16809   16812
   16804   16803   16806   16808   16804   16803   16806   16807
   16804   16803   16806   16809   16805   16803   16806   16808
   16805   16803   16806   16807   16805   16803   16806   16809
   16806   16809   16812   16814   16806   16809   16812   16813
   16806   16809   16812   16815   16807   16806   16809   16811
   16807   16806   16809   16810   16807   16806   16809   16812
   16808   16806   16809   16811   16808   16806   16809   16810
   16808   16806   16809   16812   16809   16812   16815   16817
   16809   16812   16815   16816   16809   16812   16815   16818
   16810   16809   16812   16814   16810   16809   16812   16813
   16810   16809   16812   16815   16811   16809   16812   16814
   16811   16809   16812   16813   16811   16809   16812   16815
   16812   16815   16818   16820   16812   16815   16818   16819
   16812   16815   16818   16821   16813   16812   16815   16817
   16813   16812   16815   16816   16813   16812   16815   16818
   16814   16812   16815   16817   16814   16812   16815   16816
   16814   16812   16815   16818   16815   16818   16821   16823
   16815   16818   16821   16822   16815   16818   16821   16824
   16816   16815   16818   16820   16816   16815   16818   16819
   16816   16815   16818   16821   16817   16815   16818   16820
   16817   16815   16818   16819   16817   16815   16818   16821
   16818   16821   16824   16826   16818   16821   16824   16825
   16818   16821   16824   16827   16819   16818   16821   16823
   16819   16818   16821   16822   16819   16818   16821   16824
   16820   16818   16821   16823   16820   16818   16821   16822
   16820   16818   16821   16824   16821   16824   16827   16830
   16821   16824   16827   16829   16821   16824   16827   16828
   16822   16821   16824   16826   16822   16821   16824   16825
   16822   16821   16824   16827   16823   16821   16824   16826
   16823   16821   16824   16825   16823   16821   16824   16827
   16825   16824   16827   16830   16825   16824   16827   16829
   16825   16824   16827   16828   16826   16824   16827   16830
   16826   16824   16827   16829   16826   16824   16827   16828
   16831   16833   16836   16839   16831   16833   16836   16838
   16831   16833   16836   16837   16832   16831   16833   16836
   16832   16831   16833   16835   16832   16831   16833   16834
   16833   16836   16839   16842   16833   16836   16839   16841
   16833   16836   16839   16840   16834   16833   16836   16839
   16834   16833   16836   16838   16834   16833   16836   16837
   16835   16833   16836   16839   16835   16833   16836   16838
   16835   16833   16836   16837   16836   16839   16842   16845
   16836   16839   16842   16844   16836   16839   16842   16843
   16837   16836   16839   16842   16837   16836   16839   16841
   16837   16836   16839   16840   16838   16836   16839   16842
   16838   16836   16839   16841   16838   16836   16839   16840
   16839   16842   16845   16848   16839   16842   16845   16847
   16839   16842   16845   16846   16840   16839   16842   16845
   16840   16839   16842   16844   16840   16839   16842   16843
   16841   16839   16842   16845   16841   16839   16842   16844
   16841   16839   16842   16843   16842   16845   16848   16851
   16842   16845   16848   16850   16842   16845   16848   16849
   16843   16842   16845   16848   16843   16842   16845   16847
   16843   16842   16845   16846   16844   16842   16845   16848
   16844   16842   16845   16847   16844   16842   16845   16846
   16845   16848   16851   16854   16845   16848   16851   16853
   16845   16848   16851   16852   16846   16845   16848   16851
   16846   16845   16848   16850   16846   16845   16848   16849
   16847   16845   16848   16851   16847   16845   16848   16850
   16847   16845   16848   16849   16848   16851   16854   16857
   16848   16851   16854   16856   16848   16851   16854   16855
   16849   16848   16851   16854   16849   16848   16851   16853
   16849   16848   16851   16852   16850   16848   16851   16854
   16850   16848   16851   16853   16850   16848   16851   16852
   16851   16854   16857   16860   16851   16854   16857   16859
   16851   16854   16857   16858   16852   16851   16854   16857
   16852   16851   16854   16856   16852   16851   16854   16855
   16853   16851   16854   16857   16853   16851   16854   16856
   16853   16851   16854   16855   16854   16857   16860   16863
   16854   16857   16860   16862   16854   16857   16860   16861
   16855   16854   16857   16860   16855   16854   16857   16859
   16855   16854   16857   16858   16856   16854   16857   16860
   16856   16854   16857   16859   16856   16854   16857   16858
   16857   16860   16863   16866   16857   16860   16863   16865
   16857   16860   16863   16864   16858   16857   16860   16863
   16858   16857   16860   16862   16858   16857   16860   16861
   16859   16857   16860   16863   16859   16857   16860   16862
   16859   16857   16860   16861   16860   16863   16866   16869
   16860   16863   16866   16868   16860   16863   16866   16867
   16861   16860   16863   16866   16861   16860   16863   16865
   16861   16860   16863   16864   16862   16860   16863   16866
   16862   16860   16863   16865   16862   16860   16863   16864
   16863   16866   16869   16872   16863   16866   16869   16871
   16863   16866   16869   16870   16864   16863   16866   16869
   16864   16863   16866   16868   16864   16863   16866   16867
   16865   16863   16866   16869   16865   16863   16866   16868
   16865   16863   16866   16867   16866   16869   16872   16875
   16866   16869   16872   16874   16866   16869   16872   16873
   16867   16866   16869   16872   16867   16866   16869   16871
   16867   16866   16869   16870   16868   16866   16869   16872
   16868   16866   16869   16871   16868   16866   16869   16870
   16869   16872   16875   16878   16869   16872   16875   16877
   16869   16872   16875   16876   16870   16869   16872   16875
   16870   16869   16872   16874   16870   16869   16872   16873
   16871   16869   16872   16875   16871   16869   16872   16874
   16871   16869   16872   16873   16873   16872   16875   16878
   16873   16872   16875   16877   16873   16872   16875   16876
   16874   16872   16875   16878   16874   16872   16875   16877
   16874   16872   16875   16876   16879   16880   16895   16901
   16879   16880   16895   16897   16879   16880   16895   16896
   16880   16895   16901   16898   16880   16879   16891   16894
   16880   16879   16891   16893   16880   16879   16891   16892
   16880   16879   16887   16890   16880   16879   16887   16889
   16880   16879   16887   16888   16880   16879   16883   16886
   16880   16879   16883   16885   16880   16879   16883   16884
   16881   16880   16895   16901   16881   16880   16895   16897
   16881   16880   16895   16896   16891   16879   16880   16881
   16887   16879   16880   16881   16883   16879   16880   16881
   16882   16880   16895   16901   16882   16880   16895   16897
   16882   16880   16895   16896   16891   16879   16880   16882
   16887   16879   16880   16882   16883   16879   16880   16882
   16883   16879   16880   16895   16883   16879   16891   16894
   16883   16879   16891   16893   16883   16879   16891   16892
   16883   16879   16887   16890   16883   16879   16887   16889
   16883   16879   16887   16888   16891   16879   16883   16884
   16887   16879   16883   16884   16891   16879   16883   16885
   16887   16879   16883   16885   16891   16879   16883   16886
   16887   16879   16883   16886   16887   16879   16880   16895
   16887   16879   16891   16894   16887   16879   16891   16893
   16887   16879   16891   16892   16891   16879   16887   16888
   16891   16879   16887   16889   16891   16879   16887   16890
   16891   16879   16880   16895   16900   16898   16901   16895
   16899   16898   16901   16895   16902   16898   16901   16895
   16896   16895   16901   16898   16897   16895   16901   16898
   16898   16902   16903   16906   16898   16902   16903   16905
   16898   16902   16903   16904   16899   16898   16902   16903
   16900   16898   16902   16903   16901   16898   16902   16903
   16902   16903   16906   16908   16902   16903   16906   16914
   16902   16903   16906   16907   16903   16906   16908   16909
   16903   16906   16914   16917   16903   16906   16914   16916
   16903   16906   16914   16915   16904   16903   16906   16908
   16904   16903   16906   16914   16904   16903   16906   16907
   16905   16903   16906   16908   16905   16903   16906   16914
   16905   16903   16906   16907   16906   16908   16909   16910
   16906   16908   16909   16911   16906   16914   16917   16918
   16907   16906   16908   16909   16907   16906   16914   16917
   16907   16906   16914   16916   16907   16906   16914   16915
   16908   16909   16911   16923   16908   16909   16911   16913
   16908   16909   16911   16912   16908   16906   16914   16917
   16908   16906   16914   16916   16908   16906   16914   16915
   16909   16911   16923   16926   16909   16911   16923   16925
   16909   16911   16923   16924   16914   16906   16908   16909
   16910   16909   16911   16923   16910   16909   16911   16913
   16910   16909   16911   16912   16911   16923   16926   16929
   16911   16923   16926   16928   16911   16923   16926   16927
   16912   16911   16923   16926   16912   16911   16923   16925
   16912   16911   16923   16924   16913   16911   16923   16926
   16913   16911   16923   16925   16913   16911   16923   16924
   16914   16917   16918   16919   16914   16917   16918   16920
   16915   16914   16917   16918   16916   16914   16917   16918
   16917   16918   16920   16970   16917   16918   16920   16922
   16917   16918   16920   16921   16918   16920   16970   16973
   16918   16920   16970   16972   16918   16920   16970   16971
   16919   16918   16920   16970   16919   16918   16920   16922
   16919   16918   16920   16921   16920   16970   16973   16976
   16920   16970   16973   16975   16920   16970   16973   16974
   16921   16920   16970   16973   16921   16920   16970   16972
   16921   16920   16970   16971   16922   16920   16970   16973
   16922   16920   16970   16972   16922   16920   16970   16971
   16923   16926   16929   16932   16923   16926   16929   16931
   16923   16926   16929   16930   16924   16923   16926   16929
   16924   16923   16926   16928   16924   16923   16926   16927
   16925   16923   16926   16929   16925   16923   16926   16928
   16925   16923   16926   16927   16926   16929   16932   16935
   16926   16929   16932   16934   16926   16929   16932   16933
   16927   16926   16929   16932   16927   16926   16929   16931
   16927   16926   16929   16930   16928   16926   16929   16932
   16928   16926   16929   16931   16928   16926   16929   16930
   16929   16932   16935   16938   16929   16932   16935   16937
   16929   16932   16935   16936   16930   16929   16932   16935
   16930   16929   16932   16934   16930   16929   16932   16933
   16931   16929   16932   16935   16931   16929   16932   16934
   16931   16929   16932   16933   16932   16935   16938   16941
   16932   16935   16938   16940   16932   16935   16938   16939
   16933   16932   16935   16938   16933   16932   16935   16937
   16933   16932   16935   16936   16934   16932   16935   16938
   16934   16932   16935   16937   16934   16932   16935   16936
   16935   16938   16941   16943   16935   16938   16941   16942
   16936   16935   16938   16941   16936   16935   16938   16940
   16936   16935   16938   16939   16937   16935   16938   16941
   16937   16935   16938   16940   16937   16935   16938   16939
   16938   16941   16943   16945   16938   16941   16943   16944
   16939   16938   16941   16943   16939   16938   16941   16942
   16940   16938   16941   16943   16940   16938   16941   16942
   16941   16943   16945   16948   16941   16943   16945   16947
   16941   16943   16945   16946   16942   16941   16943   16945
   16942   16941   16943   16944   16943   16945   16948   16951
   16943   16945   16948   16950   16943   16945   16948   16949
   16944   16943   16945   16948   16944   16943   16945   16947
   16944   16943   16945   16946   16945   16948   16951   16954
   16945   16948   16951   16953   16945   16948   16951   16952
   16946   16945   16948   16951   16946   16945   16948   16950
   16946   16945   16948   16949   16947   16945   16948   16951
   16947   16945   16948   16950   16947   16945   16948   16949
   16948   16951   16954   16957   16948   16951   16954   16956
   16948   16951   16954   16955   16949   16948   16951   16954
   16949   16948   16951   16953   16949   16948   16951   16952
   16950   16948   16951   16954   16950   16948   16951   16953
   16950   16948   16951   16952   16951   16954   16957   16960
   16951   16954   16957   16959   16951   16954   16957   16958
   16952   16951   16954   16957   16952   16951   16954   16956
   16952   16951   16954   16955   16953   16951   16954   16957
   16953   16951   16954   16956   16953   16951   16954   16955
   16954   16957   16960   16963   16954   16957   16960   16962
   16954   16957   16960   16961   16955   16954   16957   16960
   16955   16954   16957   16959   16955   16954   16957   16958
   16956   16954   16957   16960   16956   16954   16957   16959
   16956   16954   16957   16958   16957   16960   16963   16966
   16957   16960   16963   16965   16957   16960   16963   16964
   16958   16957   16960   16963   16958   16957   16960   16962
   16958   16957   16960   16961   16959   16957   16960   16963
   16959   16957   16960   16962   16959   16957   16960   16961
   16960   16963   16966   16969   16960   16963   16966   16968
   16960   16963   16966   16967   16961   16960   16963   16966
   16961   16960   16963   16965   16961   16960   16963   16964
   16962   16960   16963   16966   16962   16960   16963   16965
   16962   16960   16963   16964   16964   16963   16966   16969
   16964   16963   16966   16968   16964   16963   16966   16967
   16965   16963   16966   16969   16965   16963   16966   16968
   16965   16963   16966   16967   16970   16973   16976   16979
   16970   16973   16976   16978   16970   16973   16976   16977
   16971   16970   16973   16976   16971   16970   16973   16975
   16971   16970   16973   16974   16972   16970   16973   16976
   16972   16970   16973   16975   16972   16970   16973   16974
   16973   16976   16979   16982   16973   16976   16979   16981
   16973   16976   16979   16980   16974   16973   16976   16979
   16974   16973   16976   16978   16974   16973   16976   16977
   16975   16973   16976   16979   16975   16973   16976   16978
   16975   16973   16976   16977   16976   16979   16982   16985
   16976   16979   16982   16984   16976   16979   16982   16983
   16977   16976   16979   16982   16977   16976   16979   16981
   16977   16976   16979   16980   16978   16976   16979   16982
   16978   16976   16979   16981   16978   16976   16979   16980
   16979   16982   16985   16988   16979   16982   16985   16987
   16979   16982   16985   16986   16980   16979   16982   16985
   16980   16979   16982   16984   16980   16979   16982   16983
   16981   16979   16982   16985   16981   16979   16982   16984
   16981   16979   16982   16983   16982   16985   16988   16991
   16982   16985   16988   16990   16982   16985   16988   16989
   16983   16982   16985   16988   16983   16982   16985   16987
   16983   16982   16985   16986   16984   16982   16985   16988
   16984   16982   16985   16987   16984   16982   16985   16986
   16985   16988   16991   16994   16985   16988   16991   16993
   16985   16988   16991   16992   16986   16985   16988   16991
   16986   16985   16988   16990   16986   16985   16988   16989
   16987   16985   16988   16991   16987   16985   16988   16990
   16987   16985   16988   16989   16988   16991   16994   16997
   16988   16991   16994   16996   16988   16991   16994   16995
   16989   16988   16991   16994   16989   16988   16991   16993
   16989   16988   16991   16992   16990   16988   16991   16994
   16990   16988   16991   16993   16990   16988   16991   16992
   16991   16994   16997   17000   16991   16994   16997   16999
   16991   16994   16997   16998   16992   16991   16994   16997
   16992   16991   16994   16996   16992   16991   16994   16995
   16993   16991   16994   16997   16993   16991   16994   16996
   16993   16991   16994   16995   16994   16997   17000   17003
   16994   16997   17000   17002   16994   16997   17000   17001
   16995   16994   16997   17000   16995   16994   16997   16999
   16995   16994   16997   16998   16996   16994   16997   17000
   16996   16994   16997   16999   16996   16994   16997   16998
   16997   17000   17003   17006   16997   17000   17003   17005
   16997   17000   17003   17004   16998   16997   17000   17003
   16998   16997   17000   17002   16998   16997   17000   17001
   16999   16997   17000   17003   16999   16997   17000   17002
   16999   16997   17000   17001   17000   17003   17006   17009
   17000   17003   17006   17008   17000   17003   17006   17007
   17001   17000   17003   17006   17001   17000   17003   17005
   17001   17000   17003   17004   17002   17000   17003   17006
   17002   17000   17003   17005   17002   17000   17003   17004
   17003   17006   17009   17012   17003   17006   17009   17011
   17003   17006   17009   17010   17004   17003   17006   17009
   17004   17003   17006   17008   17004   17003   17006   17007
   17005   17003   17006   17009   17005   17003   17006   17008
   17005   17003   17006   17007   17007   17006   17009   17012
   17007   17006   17009   17011   17007   17006   17009   17010
   17008   17006   17009   17012   17008   17006   17009   17011
   17008   17006   17009   17010   17013   17017   17020   17027
   17013   17017   17020   17022   17013   17017   17020   17021
   17014   17013   17017   17020   17014   17013   17017   17019
   17014   17013   17017   17018   17015   17013   17017   17020
   17015   17013   17017   17019   17015   17013   17017   17018
   17016   17013   17017   17020   17016   17013   17017   17019
   17016   17013   17017   17018   17017   17020   17027   17023
   17018   17017   17020   17027   17018   17017   17020   17022
   17018   17017   17020   17021   17019   17017   17020   17027
   17019   17017   17020   17022   17019   17017   17020   17021
   17025   17023   17027   17020   17024   17023   17027   17020
   17026   17023   17027   17020   17021   17020   17027   17023
   17022   17020   17027   17023   17023   17026   17028   17031
   17023   17026   17028   17030   17023   17026   17028   17029
   17024   17023   17026   17028   17025   17023   17026   17028
   17026   17028   17031   17033   17026   17028   17031   17039
   17026   17028   17031   17032   17027   17023   17026   17028
   17028   17031   17033   17034   17028   17031   17039   17042
   17028   17031   17039   17041   17028   17031   17039   17040
   17029   17028   17031   17033   17029   17028   17031   17039
   17029   17028   17031   17032   17030   17028   17031   17033
   17030   17028   17031   17039   17030   17028   17031   17032
   17031   17033   17034   17035   17031   17033   17034   17036
   17031   17039   17042   17043   17032   17031   17033   17034
   17032   17031   17039   17042   17032   17031   17039   17041
   17032   17031   17039   17040   17033   17034   17036   17048
   17033   17034   17036   17038   17033   17034   17036   17037
   17033   17031   17039   17042   17033   17031   17039   17041
   17033   17031   17039   17040   17034   17036   17048   17051
   17034   17036   17048   17050   17034   17036   17048   17049
   17039   17031   17033   17034   17035   17034   17036   17048
   17035   17034   17036   17038   17035   17034   17036   17037
   17036   17048   17051   17054   17036   17048   17051   17053
   17036   17048   17051   17052   17037   17036   17048   17051
   17037   17036   17048   17050   17037   17036   17048   17049
   17038   17036   17048   17051   17038   17036   17048   17050
   17038   17036   17048   17049   17039   17042   17043   17044
   17039   17042   17043   17045   17040   17039   17042   17043
   17041   17039   17042   17043   17042   17043   17045   17095
   17042   17043   17045   17047   17042   17043   17045   17046
   17043   17045   17095   17098   17043   17045   17095   17097
   17043   17045   17095   17096   17044   17043   17045   17095
   17044   17043   17045   17047   17044   17043   17045   17046
   17045   17095   17098   17101   17045   17095   17098   17100
   17045   17095   17098   17099   17046   17045   17095   17098
   17046   17045   17095   17097   17046   17045   17095   17096
   17047   17045   17095   17098   17047   17045   17095   17097
   17047   17045   17095   17096   17048   17051   17054   17057
   17048   17051   17054   17056   17048   17051   17054   17055
   17049   17048   17051   17054   17049   17048   17051   17053
   17049   17048   17051   17052   17050   17048   17051   17054
   17050   17048   17051   17053   17050   17048   17051   17052
   17051   17054   17057   17060   17051   17054   17057   17059
   17051   17054   17057   17058   17052   17051   17054   17057
   17052   17051   17054   17056   17052   17051   17054   17055
   17053   17051   17054   17057   17053   17051   17054   17056
   17053   17051   17054   17055   17054   17057   17060   17063
   17054   17057   17060   17062   17054   17057   17060   17061
   17055   17054   17057   17060   17055   17054   17057   17059
   17055   17054   17057   17058   17056   17054   17057   17060
   17056   17054   17057   17059   17056   17054   17057   17058
   17057   17060   17063   17066   17057   17060   17063   17065
   17057   17060   17063   17064   17058   17057   17060   17063
   17058   17057   17060   17062   17058   17057   17060   17061
   17059   17057   17060   17063   17059   17057   17060   17062
   17059   17057   17060   17061   17060   17063   17066   17068
   17060   17063   17066   17067   17061   17060   17063   17066
   17061   17060   17063   17065   17061   17060   17063   17064
   17062   17060   17063   17066   17062   17060   17063   17065
   17062   17060   17063   17064   17063   17066   17068   17070
   17063   17066   17068   17069   17064   17063   17066   17068
   17064   17063   17066   17067   17065   17063   17066   17068
   17065   17063   17066   17067   17066   17068   17070   17073
   17066   17068   17070   17072   17066   17068   17070   17071
   17067   17066   17068   17070   17067   17066   17068   17069
   17068   17070   17073   17076   17068   17070   17073   17075
   17068   17070   17073   17074   17069   17068   17070   17073
   17069   17068   17070   17072   17069   17068   17070   17071
   17070   17073   17076   17079   17070   17073   17076   17078
   17070   17073   17076   17077   17071   17070   17073   17076
   17071   17070   17073   17075   17071   17070   17073   17074
   17072   17070   17073   17076   17072   17070   17073   17075
   17072   17070   17073   17074   17073   17076   17079   17082
   17073   17076   17079   17081   17073   17076   17079   17080
   17074   17073   17076   17079   17074   17073   17076   17078
   17074   17073   17076   17077   17075   17073   17076   17079
   17075   17073   17076   17078   17075   17073   17076   17077
   17076   17079   17082   17085   17076   17079   17082   17084
   17076   17079   17082   17083   17077   17076   17079   17082
   17077   17076   17079   17081   17077   17076   17079   17080
   17078   17076   17079   17082   17078   17076   17079   17081
   17078   17076   17079   17080   17079   17082   17085   17088
   17079   17082   17085   17087   17079   17082   17085   17086
   17080   17079   17082   17085   17080   17079   17082   17084
   17080   17079   17082   17083   17081   17079   17082   17085
   17081   17079   17082   17084   17081   17079   17082   17083
   17082   17085   17088   17091   17082   17085   17088   17090
   17082   17085   17088   17089   17083   17082   17085   17088
   17083   17082   17085   17087   17083   17082   17085   17086
   17084   17082   17085   17088   17084   17082   17085   17087
   17084   17082   17085   17086   17085   17088   17091   17094
   17085   17088   17091   17093   17085   17088   17091   17092
   17086   17085   17088   17091   17086   17085   17088   17090
   17086   17085   17088   17089   17087   17085   17088   17091
   17087   17085   17088   17090   17087   17085   17088   17089
   17089   17088   17091   17094   17089   17088   17091   17093
   17089   17088   17091   17092   17090   17088   17091   17094
   17090   17088   17091   17093   17090   17088   17091   17092
   17095   17098   17101   17104   17095   17098   17101   17103
   17095   17098   17101   17102   17096   17095   17098   17101
   17096   17095   17098   17100   17096   17095   17098   17099
   17097   17095   17098   17101   17097   17095   17098   17100
   17097   17095   17098   17099   17098   17101   17104   17107
   17098   17101   17104   17106   17098   17101   17104   17105
   17099   17098   17101   17104   17099   17098   17101   17103
   17099   17098   17101   17102   17100   17098   17101   17104
   17100   17098   17101   17103   17100   17098   17101   17102
   17101   17104   17107   17110   17101   17104   17107   17109
   17101   17104   17107   17108   17102   17101   17104   17107
   17102   17101   17104   17106   17102   17101   17104   17105
   17103   17101   17104   17107   17103   17101   17104   17106
   17103   17101   17104   17105   17104   17107   17110   17113
   17104   17107   17110   17112   17104   17107   17110   17111
   17105   17104   17107   17110   17105   17104   17107   17109
   17105   17104   17107   17108   17106   17104   17107   17110
   17106   17104   17107   17109   17106   17104   17107   17108
   17107   17110   17113   17116   17107   17110   17113   17115
   17107   17110   17113   17114   17108   17107   17110   17113
   17108   17107   17110   17112   17108   17107   17110   17111
   17109   17107   17110   17113   17109   17107   17110   17112
   17109   17107   17110   17111   17110   17113   17116   17119
   17110   17113   17116   17118   17110   17113   17116   17117
   17111   17110   17113   17116   17111   17110   17113   17115
   17111   17110   17113   17114   17112   17110   17113   17116
   17112   17110   17113   17115   17112   17110   17113   17114
   17113   17116   17119   17122   17113   17116   17119   17121
   17113   17116   17119   17120   17114   17113   17116   17119
   17114   17113   17116   17118   17114   17113   17116   17117
   17115   17113   17116   17119   17115   17113   17116   17118
   17115   17113   17116   17117   17116   17119   17122   17125
   17116   17119   17122   17124   17116   17119   17122   17123
   17117   17116   17119   17122   17117   17116   17119   17121
   17117   17116   17119   17120   17118   17116   17119   17122
   17118   17116   17119   17121   17118   17116   17119   17120
   17119   17122   17125   17128   17119   17122   17125   17127
   17119   17122   17125   17126   17120   17119   17122   17125
   17120   17119   17122   17124   17120   17119   17122   17123
   17121   17119   17122   17125   17121   17119   17122   17124
   17121   17119   17122   17123   17122   17125   17128   17131
   17122   17125   17128   17130   17122   17125   17128   17129
   17123   17122   17125   17128   17123   17122   17125   17127
   17123   17122   17125   17126   17124   17122   17125   17128
   17124   17122   17125   17127   17124   17122   17125   17126
   17125   17128   17131   17134   17125   17128   17131   17133
   17125   17128   17131   17132   17126   17125   17128   17131
   17126   17125   17128   17130   17126   17125   17128   17129
   17127   17125   17128   17131   17127   17125   17128   17130
   17127   17125   17128   17129   17128   17131   17134   17137
   17128   17131   17134   17136   17128   17131   17134   17135
   17129   17128   17131   17134   17129   17128   17131   17133
   17129   17128   17131   17132   17130   17128   17131   17134
   17130   17128   17131   17133   17130   17128   17131   17132
   17132   17131   17134   17137   17132   17131   17134   17136
   17132   17131   17134   17135   17133   17131   17134   17137
   17133   17131   17134   17136   17133   17131   17134   17135
   17138   17142   17147   17153   17138   17142   17147   17149
   17138   17142   17147   17148   17138   17142   17144   17145
   17138   17142   17144   17146   17139   17138   17142   17147
   17139   17138   17142   17143   17139   17138   17142   17144
   17140   17138   17142   17147   17140   17138   17142   17143
   17140   17138   17142   17144   17141   17138   17142   17147
   17141   17138   17142   17143   17141   17138   17142   17144
   17142   17147   17153   17150   17143   17142   17147   17153
   17143   17142   17147   17149   17143   17142   17147   17148
   17143   17142   17144   17145   17143   17142   17144   17146
   17144   17142   17147   17153   17144   17142   17147   17149
   17144   17142   17147   17148   17147   17142   17144   17145
   17147   17142   17144   17146   17152   17150   17153   17147
   17151   17150   17153   17147   17154   17150   17153   17147
   17148   17147   17153   17150   17149   17147   17153   17150
   17150   17154   17155   17158   17150   17154   17155   17157
   17150   17154   17155   17156   17151   17150   17154   17155
   17152   17150   17154   17155   17153   17150   17154   17155
   17154   17155   17158   17160   17154   17155   17158   17166
   17154   17155   17158   17159   17155   17158   17160   17161
   17155   17158   17166   17169   17155   17158   17166   17168
   17155   17158   17166   17167   17156   17155   17158   17160
   17156   17155   17158   17166   17156   17155   17158   17159
   17157   17155   17158   17160   17157   17155   17158   17166
   17157   17155   17158   17159   17158   17160   17161   17162
   17158   17160   17161   17163   17158   17166   17169   17170
   17159   17158   17160   17161   17159   17158   17166   17169
   17159   17158   17166   17168   17159   17158   17166   17167
   17160   17161   17163   17175   17160   17161   17163   17165
   17160   17161   17163   17164   17160   17158   17166   17169
   17160   17158   17166   17168   17160   17158   17166   17167
   17161   17163   17175   17178   17161   17163   17175   17177
   17161   17163   17175   17176   17166   17158   17160   17161
   17162   17161   17163   17175   17162   17161   17163   17165
   17162   17161   17163   17164   17163   17175   17178   17181
   17163   17175   17178   17180   17163   17175   17178   17179
   17164   17163   17175   17178   17164   17163   17175   17177
   17164   17163   17175   17176   17165   17163   17175   17178
   17165   17163   17175   17177   17165   17163   17175   17176
   17166   17169   17170   17171   17166   17169   17170   17172
   17167   17166   17169   17170   17168   17166   17169   17170
   17169   17170   17172   17222   17169   17170   17172   17174
   17169   17170   17172   17173   17170   17172   17222   17225
   17170   17172   17222   17224   17170   17172   17222   17223
   17171   17170   17172   17222   17171   17170   17172   17174
   17171   17170   17172   17173   17172   17222   17225   17228
   17172   17222   17225   17227   17172   17222   17225   17226
   17173   17172   17222   17225   17173   17172   17222   17224
   17173   17172   17222   17223   17174   17172   17222   17225
   17174   17172   17222   17224   17174   17172   17222   17223
   17175   17178   17181   17184   17175   17178   17181   17183
   17175   17178   17181   17182   17176   17175   17178   17181
   17176   17175   17178   17180   17176   17175   17178   17179
   17177   17175   17178   17181   17177   17175   17178   17180
   17177   17175   17178   17179   17178   17181   17184   17187
   17178   17181   17184   17186   17178   17181   17184   17185
   17179   17178   17181   17184   17179   17178   17181   17183
   17179   17178   17181   17182   17180   17178   17181   17184
   17180   17178   17181   17183   17180   17178   17181   17182
   17181   17184   17187   17190   17181   17184   17187   17189
   17181   17184   17187   17188   17182   17181   17184   17187
   17182   17181   17184   17186   17182   17181   17184   17185
   17183   17181   17184   17187   17183   17181   17184   17186
   17183   17181   17184   17185   17184   17187   17190   17193
   17184   17187   17190   17192   17184   17187   17190   17191
   17185   17184   17187   17190   17185   17184   17187   17189
   17185   17184   17187   17188   17186   17184   17187   17190
   17186   17184   17187   17189   17186   17184   17187   17188
   17187   17190   17193   17195   17187   17190   17193   17194
   17188   17187   17190   17193   17188   17187   17190   17192
   17188   17187   17190   17191   17189   17187   17190   17193
   17189   17187   17190   17192   17189   17187   17190   17191
   17190   17193   17195   17197   17190   17193   17195   17196
   17191   17190   17193   17195   17191   17190   17193   17194
   17192   17190   17193   17195   17192   17190   17193   17194
   17193   17195   17197   17200   17193   17195   17197   17199
   17193   17195   17197   17198   17194   17193   17195   17197
   17194   17193   17195   17196   17195   17197   17200   17203
   17195   17197   17200   17202   17195   17197   17200   17201
   17196   17195   17197   17200   17196   17195   17197   17199
   17196   17195   17197   17198   17197   17200   17203   17206
   17197   17200   17203   17205   17197   17200   17203   17204
   17198   17197   17200   17203   17198   17197   17200   17202
   17198   17197   17200   17201   17199   17197   17200   17203
   17199   17197   17200   17202   17199   17197   17200   17201
   17200   17203   17206   17209   17200   17203   17206   17208
   17200   17203   17206   17207   17201   17200   17203   17206
   17201   17200   17203   17205   17201   17200   17203   17204
   17202   17200   17203   17206   17202   17200   17203   17205
   17202   17200   17203   17204   17203   17206   17209   17212
   17203   17206   17209   17211   17203   17206   17209   17210
   17204   17203   17206   17209   17204   17203   17206   17208
   17204   17203   17206   17207   17205   17203   17206   17209
   17205   17203   17206   17208   17205   17203   17206   17207
   17206   17209   17212   17215   17206   17209   17212   17214
   17206   17209   17212   17213   17207   17206   17209   17212
   17207   17206   17209   17211   17207   17206   17209   17210
   17208   17206   17209   17212   17208   17206   17209   17211
   17208   17206   17209   17210   17209   17212   17215   17218
   17209   17212   17215   17217   17209   17212   17215   17216
   17210   17209   17212   17215   17210   17209   17212   17214
   17210   17209   17212   17213   17211   17209   17212   17215
   17211   17209   17212   17214   17211   17209   17212   17213
   17212   17215   17218   17221   17212   17215   17218   17220
   17212   17215   17218   17219   17213   17212   17215   17218
   17213   17212   17215   17217   17213   17212   17215   17216
   17214   17212   17215   17218   17214   17212   17215   17217
   17214   17212   17215   17216   17216   17215   17218   17221
   17216   17215   17218   17220   17216   17215   17218   17219
   17217   17215   17218   17221   17217   17215   17218   17220
   17217   17215   17218   17219   17222   17225   17228   17231
   17222   17225   17228   17230   17222   17225   17228   17229
   17223   17222   17225   17228   17223   17222   17225   17227
   17223   17222   17225   17226   17224   17222   17225   17228
   17224   17222   17225   17227   17224   17222   17225   17226
   17225   17228   17231   17234   17225   17228   17231   17233
   17225   17228   17231   17232   17226   17225   17228   17231
   17226   17225   17228   17230   17226   17225   17228   17229
   17227   17225   17228   17231   17227   17225   17228   17230
   17227   17225   17228   17229   17228   17231   17234   17237
   17228   17231   17234   17236   17228   17231   17234   17235
   17229   17228   17231   17234   17229   17228   17231   17233
   17229   17228   17231   17232   17230   17228   17231   17234
   17230   17228   17231   17233   17230   17228   17231   17232
   17231   17234   17237   17240   17231   17234   17237   17239
   17231   17234   17237   17238   17232   17231   17234   17237
   17232   17231   17234   17236   17232   17231   17234   17235
   17233   17231   17234   17237   17233   17231   17234   17236
   17233   17231   17234   17235   17234   17237   17240   17243
   17234   17237   17240   17242   17234   17237   17240   17241
   17235   17234   17237   17240   17235   17234   17237   17239
   17235   17234   17237   17238   17236   17234   17237   17240
   17236   17234   17237   17239   17236   17234   17237   17238
   17237   17240   17243   17246   17237   17240   17243   17245
   17237   17240   17243   17244   17238   17237   17240   17243
   17238   17237   17240   17242   17238   17237   17240   17241
   17239   17237   17240   17243   17239   17237   17240   17242
   17239   17237   17240   17241   17240   17243   17246   17249
   17240   17243   17246   17248   17240   17243   17246   17247
   17241   17240   17243   17246   17241   17240   17243   17245
   17241   17240   17243   17244   17242   17240   17243   17246
   17242   17240   17243   17245   17242   17240   17243   17244
   17243   17246   17249   17252   17243   17246   17249   17251
   17243   17246   17249   17250   17244   17243   17246   17249
   17244   17243   17246   17248   17244   17243   17246   17247
   17245   17243   17246   17249   17245   17243   17246   17248
   17245   17243   17246   17247   17246   17249   17252   17255
   17246   17249   17252   17254   17246   17249   17252   17253
   17247   17246   17249   17252   17247   17246   17249   17251
   17247   17246   17249   17250   17248   17246   17249   17252
   17248   17246   17249   17251   17248   17246   17249   17250
   17249   17252   17255   17258   17249   17252   17255   17257
   17249   17252   17255   17256   17250   17249   17252   17255
   17250   17249   17252   17254   17250   17249   17252   17253
   17251   17249   17252   17255   17251   17249   17252   17254
   17251   17249   17252   17253   17252   17255   17258   17261
   17252   17255   17258   17260   17252   17255   17258   17259
   17253   17252   17255   17258   17253   17252   17255   17257
   17253   17252   17255   17256   17254   17252   17255   17258
   17254   17252   17255   17257   17254   17252   17255   17256
   17255   17258   17261   17264   17255   17258   17261   17263
   17255   17258   17261   17262   17256   17255   17258   17261
   17256   17255   17258   17260   17256   17255   17258   17259
   17257   17255   17258   17261   17257   17255   17258   17260
   17257   17255   17258   17259   17259   17258   17261   17264
   17259   17258   17261   17263   17259   17258   17261   17262
   17260   17258   17261   17264   17260   17258   17261   17263
   17260   17258   17261   17262   17265   17269   17272   17279
   17265   17269   17272   17274   17265   17269   17272   17273
   17266   17265   17269   17272   17266   17265   17269   17271
   17266   17265   17269   17270   17267   17265   17269   17272
   17267   17265   17269   17271   17267   17265   17269   17270
   17268   17265   17269   17272   17268   17265   17269   17271
   17268   17265   17269   17270   17269   17272   17279   17275
   17270   17269   17272   17279   17270   17269   17272   17274
   17270   17269   17272   17273   17271   17269   17272   17279
   17271   17269   17272   17274   17271   17269   17272   17273
   17277   17275   17279   17272   17276   17275   17279   17272
   17278   17275   17279   17272   17273   17272   17279   17275
   17274   17272   17279   17275   17275   17278   17280   17283
   17275   17278   17280   17282   17275   17278   17280   17281
   17276   17275   17278   17280   17277   17275   17278   17280
   17278   17280   17283   17285   17278   17280   17283   17291
   17278   17280   17283   17284   17279   17275   17278   17280
   17280   17283   17285   17286   17280   17283   17291   17294
   17280   17283   17291   17293   17280   17283   17291   17292
   17281   17280   17283   17285   17281   17280   17283   17291
   17281   17280   17283   17284   17282   17280   17283   17285
   17282   17280   17283   17291   17282   17280   17283   17284
   17283   17285   17286   17287   17283   17285   17286   17288
   17283   17291   17294   17295   17284   17283   17285   17286
   17284   17283   17291   17294   17284   17283   17291   17293
   17284   17283   17291   17292   17285   17286   17288   17300
   17285   17286   17288   17290   17285   17286   17288   17289
   17285   17283   17291   17294   17285   17283   17291   17293
   17285   17283   17291   17292   17286   17288   17300   17303
   17286   17288   17300   17302   17286   17288   17300   17301
   17291   17283   17285   17286   17287   17286   17288   17300
   17287   17286   17288   17290   17287   17286   17288   17289
   17288   17300   17303   17306   17288   17300   17303   17305
   17288   17300   17303   17304   17289   17288   17300   17303
   17289   17288   17300   17302   17289   17288   17300   17301
   17290   17288   17300   17303   17290   17288   17300   17302
   17290   17288   17300   17301   17291   17294   17295   17296
   17291   17294   17295   17297   17292   17291   17294   17295
   17293   17291   17294   17295   17294   17295   17297   17347
   17294   17295   17297   17299   17294   17295   17297   17298
   17295   17297   17347   17350   17295   17297   17347   17349
   17295   17297   17347   17348   17296   17295   17297   17347
   17296   17295   17297   17299   17296   17295   17297   17298
   17297   17347   17350   17353   17297   17347   17350   17352
   17297   17347   17350   17351   17298   17297   17347   17350
   17298   17297   17347   17349   17298   17297   17347   17348
   17299   17297   17347   17350   17299   17297   17347   17349
   17299   17297   17347   17348   17300   17303   17306   17309
   17300   17303   17306   17308   17300   17303   17306   17307
   17301   17300   17303   17306   17301   17300   17303   17305
   17301   17300   17303   17304   17302   17300   17303   17306
   17302   17300   17303   17305   17302   17300   17303   17304
   17303   17306   17309   17312   17303   17306   17309   17311
   17303   17306   17309   17310   17304   17303   17306   17309
   17304   17303   17306   17308   17304   17303   17306   17307
   17305   17303   17306   17309   17305   17303   17306   17308
   17305   17303   17306   17307   17306   17309   17312   17315
   17306   17309   17312   17314   17306   17309   17312   17313
   17307   17306   17309   17312   17307   17306   17309   17311
   17307   17306   17309   17310   17308   17306   17309   17312
   17308   17306   17309   17311   17308   17306   17309   17310
   17309   17312   17315   17318   17309   17312   17315   17317
   17309   17312   17315   17316   17310   17309   17312   17315
   17310   17309   17312   17314   17310   17309   17312   17313
   17311   17309   17312   17315   17311   17309   17312   17314
   17311   17309   17312   17313   17312   17315   17318   17320
   17312   17315   17318   17319   17313   17312   17315   17318
   17313   17312   17315   17317   17313   17312   17315   17316
   17314   17312   17315   17318   17314   17312   17315   17317
   17314   17312   17315   17316   17315   17318   17320   17322
   17315   17318   17320   17321   17316   17315   17318   17320
   17316   17315   17318   17319   17317   17315   17318   17320
   17317   17315   17318   17319   17318   17320   17322   17325
   17318   17320   17322   17324   17318   17320   17322   17323
   17319   17318   17320   17322   17319   17318   17320   17321
   17320   17322   17325   17328   17320   17322   17325   17327
   17320   17322   17325   17326   17321   17320   17322   17325
   17321   17320   17322   17324   17321   17320   17322   17323
   17322   17325   17328   17331   17322   17325   17328   17330
   17322   17325   17328   17329   17323   17322   17325   17328
   17323   17322   17325   17327   17323   17322   17325   17326
   17324   17322   17325   17328   17324   17322   17325   17327
   17324   17322   17325   17326   17325   17328   17331   17334
   17325   17328   17331   17333   17325   17328   17331   17332
   17326   17325   17328   17331   17326   17325   17328   17330
   17326   17325   17328   17329   17327   17325   17328   17331
   17327   17325   17328   17330   17327   17325   17328   17329
   17328   17331   17334   17337   17328   17331   17334   17336
   17328   17331   17334   17335   17329   17328   17331   17334
   17329   17328   17331   17333   17329   17328   17331   17332
   17330   17328   17331   17334   17330   17328   17331   17333
   17330   17328   17331   17332   17331   17334   17337   17340
   17331   17334   17337   17339   17331   17334   17337   17338
   17332   17331   17334   17337   17332   17331   17334   17336
   17332   17331   17334   17335   17333   17331   17334   17337
   17333   17331   17334   17336   17333   17331   17334   17335
   17334   17337   17340   17343   17334   17337   17340   17342
   17334   17337   17340   17341   17335   17334   17337   17340
   17335   17334   17337   17339   17335   17334   17337   17338
   17336   17334   17337   17340   17336   17334   17337   17339
   17336   17334   17337   17338   17337   17340   17343   17346
   17337   17340   17343   17345   17337   17340   17343   17344
   17338   17337   17340   17343   17338   17337   17340   17342
   17338   17337   17340   17341   17339   17337   17340   17343
   17339   17337   17340   17342   17339   17337   17340   17341
   17341   17340   17343   17346   17341   17340   17343   17345
   17341   17340   17343   17344   17342   17340   17343   17346
   17342   17340   17343   17345   17342   17340   17343   17344
   17347   17350   17353   17356   17347   17350   17353   17355
   17347   17350   17353   17354   17348   17347   17350   17353
   17348   17347   17350   17352   17348   17347   17350   17351
   17349   17347   17350   17353   17349   17347   17350   17352
   17349   17347   17350   17351   17350   17353   17356   17359
   17350   17353   17356   17358   17350   17353   17356   17357
   17351   17350   17353   17356   17351   17350   17353   17355
   17351   17350   17353   17354   17352   17350   17353   17356
   17352   17350   17353   17355   17352   17350   17353   17354
   17353   17356   17359   17362   17353   17356   17359   17361
   17353   17356   17359   17360   17354   17353   17356   17359
   17354   17353   17356   17358   17354   17353   17356   17357
   17355   17353   17356   17359   17355   17353   17356   17358
   17355   17353   17356   17357   17356   17359   17362   17365
   17356   17359   17362   17364   17356   17359   17362   17363
   17357   17356   17359   17362   17357   17356   17359   17361
   17357   17356   17359   17360   17358   17356   17359   17362
   17358   17356   17359   17361   17358   17356   17359   17360
   17359   17362   17365   17368   17359   17362   17365   17367
   17359   17362   17365   17366   17360   17359   17362   17365
   17360   17359   17362   17364   17360   17359   17362   17363
   17361   17359   17362   17365   17361   17359   17362   17364
   17361   17359   17362   17363   17362   17365   17368   17371
   17362   17365   17368   17370   17362   17365   17368   17369
   17363   17362   17365   17368   17363   17362   17365   17367
   17363   17362   17365   17366   17364   17362   17365   17368
   17364   17362   17365   17367   17364   17362   17365   17366
   17365   17368   17371   17374   17365   17368   17371   17373
   17365   17368   17371   17372   17366   17365   17368   17371
   17366   17365   17368   17370   17366   17365   17368   17369
   17367   17365   17368   17371   17367   17365   17368   17370
   17367   17365   17368   17369   17368   17371   17374   17377
   17368   17371   17374   17376   17368   17371   17374   17375
   17369   17368   17371   17374   17369   17368   17371   17373
   17369   17368   17371   17372   17370   17368   17371   17374
   17370   17368   17371   17373   17370   17368   17371   17372
   17371   17374   17377   17380   17371   17374   17377   17379
   17371   17374   17377   17378   17372   17371   17374   17377
   17372   17371   17374   17376   17372   17371   17374   17375
   17373   17371   17374   17377   17373   17371   17374   17376
   17373   17371   17374   17375   17374   17377   17380   17383
   17374   17377   17380   17382   17374   17377   17380   17381
   17375   17374   17377   17380   17375   17374   17377   17379
   17375   17374   17377   17378   17376   17374   17377   17380
   17376   17374   17377   17379   17376   17374   17377   17378
   17377   17380   17383   17386   17377   17380   17383   17385
   17377   17380   17383   17384   17378   17377   17380   17383
   17378   17377   17380   17382   17378   17377   17380   17381
   17379   17377   17380   17383   17379   17377   17380   17382
   17379   17377   17380   17381   17380   17383   17386   17389
   17380   17383   17386   17388   17380   17383   17386   17387
   17381   17380   17383   17386   17381   17380   17383   17385
   17381   17380   17383   17384   17382   17380   17383   17386
   17382   17380   17383   17385   17382   17380   17383   17384
   17384   17383   17386   17389   17384   17383   17386   17388
   17384   17383   17386   17387   17385   17383   17386   17389
   17385   17383   17386   17388   17385   17383   17386   17387
   17390   17394   17399   17405   17390   17394   17399   17401
   17390   17394   17399   17400   17390   17394   17396   17397
   17390   17394   17396   17398   17391   17390   17394   17399
   17391   17390   17394   17395   17391   17390   17394   17396
   17392   17390   17394   17399   17392   17390   17394   17395
   17392   17390   17394   17396   17393   17390   17394   17399
   17393   17390   17394   17395   17393   17390   17394   17396
   17394   17399   17405   17402   17395   17394   17399   17405
   17395   17394   17399   17401   17395   17394   17399   17400
   17395   17394   17396   17397   17395   17394   17396   17398
   17396   17394   17399   17405   17396   17394   17399   17401
   17396   17394   17399   17400   17399   17394   17396   17397
   17399   17394   17396   17398   17404   17402   17405   17399
   17403   17402   17405   17399   17406   17402   17405   17399
   17400   17399   17405   17402   17401   17399   17405   17402
   17402   17406   17407   17410   17402   17406   17407   17409
   17402   17406   17407   17408   17403   17402   17406   17407
   17404   17402   17406   17407   17405   17402   17406   17407
   17406   17407   17410   17412   17406   17407   17410   17418
   17406   17407   17410   17411   17407   17410   17412   17413
   17407   17410   17418   17421   17407   17410   17418   17420
   17407   17410   17418   17419   17408   17407   17410   17412
   17408   17407   17410   17418   17408   17407   17410   17411
   17409   17407   17410   17412   17409   17407   17410   17418
   17409   17407   17410   17411   17410   17412   17413   17414
   17410   17412   17413   17415   17410   17418   17421   17422
   17411   17410   17412   17413   17411   17410   17418   17421
   17411   17410   17418   17420   17411   17410   17418   17419
   17412   17413   17415   17427   17412   17413   17415   17417
   17412   17413   17415   17416   17412   17410   17418   17421
   17412   17410   17418   17420   17412   17410   17418   17419
   17413   17415   17427   17430   17413   17415   17427   17429
   17413   17415   17427   17428   17418   17410   17412   17413
   17414   17413   17415   17427   17414   17413   17415   17417
   17414   17413   17415   17416   17415   17427   17430   17433
   17415   17427   17430   17432   17415   17427   17430   17431
   17416   17415   17427   17430   17416   17415   17427   17429
   17416   17415   17427   17428   17417   17415   17427   17430
   17417   17415   17427   17429   17417   17415   17427   17428
   17418   17421   17422   17423   17418   17421   17422   17424
   17419   17418   17421   17422   17420   17418   17421   17422
   17421   17422   17424   17474   17421   17422   17424   17426
   17421   17422   17424   17425   17422   17424   17474   17477
   17422   17424   17474   17476   17422   17424   17474   17475
   17423   17422   17424   17474   17423   17422   17424   17426
   17423   17422   17424   17425   17424   17474   17477   17480
   17424   17474   17477   17479   17424   17474   17477   17478
   17425   17424   17474   17477   17425   17424   17474   17476
   17425   17424   17474   17475   17426   17424   17474   17477
   17426   17424   17474   17476   17426   17424   17474   17475
   17427   17430   17433   17436   17427   17430   17433   17435
   17427   17430   17433   17434   17428   17427   17430   17433
   17428   17427   17430   17432   17428   17427   17430   17431
   17429   17427   17430   17433   17429   17427   17430   17432
   17429   17427   17430   17431   17430   17433   17436   17439
   17430   17433   17436   17438   17430   17433   17436   17437
   17431   17430   17433   17436   17431   17430   17433   17435
   17431   17430   17433   17434   17432   17430   17433   17436
   17432   17430   17433   17435   17432   17430   17433   17434
   17433   17436   17439   17442   17433   17436   17439   17441
   17433   17436   17439   17440   17434   17433   17436   17439
   17434   17433   17436   17438   17434   17433   17436   17437
   17435   17433   17436   17439   17435   17433   17436   17438
   17435   17433   17436   17437   17436   17439   17442   17445
   17436   17439   17442   17444   17436   17439   17442   17443
   17437   17436   17439   17442   17437   17436   17439   17441
   17437   17436   17439   17440   17438   17436   17439   17442
   17438   17436   17439   17441   17438   17436   17439   17440
   17439   17442   17445   17447   17439   17442   17445   17446
   17440   17439   17442   17445   17440   17439   17442   17444
   17440   17439   17442   17443   17441   17439   17442   17445
   17441   17439   17442   17444   17441   17439   17442   17443
   17442   17445   17447   17449   17442   17445   17447   17448
   17443   17442   17445   17447   17443   17442   17445   17446
   17444   17442   17445   17447   17444   17442   17445   17446
   17445   17447   17449   17452   17445   17447   17449   17451
   17445   17447   17449   17450   17446   17445   17447   17449
   17446   17445   17447   17448   17447   17449   17452   17455
   17447   17449   17452   17454   17447   17449   17452   17453
   17448   17447   17449   17452   17448   17447   17449   17451
   17448   17447   17449   17450   17449   17452   17455   17458
   17449   17452   17455   17457   17449   17452   17455   17456
   17450   17449   17452   17455   17450   17449   17452   17454
   17450   17449   17452   17453   17451   17449   17452   17455
   17451   17449   17452   17454   17451   17449   17452   17453
   17452   17455   17458   17461   17452   17455   17458   17460
   17452   17455   17458   17459   17453   17452   17455   17458
   17453   17452   17455   17457   17453   17452   17455   17456
   17454   17452   17455   17458   17454   17452   17455   17457
   17454   17452   17455   17456   17455   17458   17461   17464
   17455   17458   17461   17463   17455   17458   17461   17462
   17456   17455   17458   17461   17456   17455   17458   17460
   17456   17455   17458   17459   17457   17455   17458   17461
   17457   17455   17458   17460   17457   17455   17458   17459
   17458   17461   17464   17467   17458   17461   17464   17466
   17458   17461   17464   17465   17459   17458   17461   17464
   17459   17458   17461   17463   17459   17458   17461   17462
   17460   17458   17461   17464   17460   17458   17461   17463
   17460   17458   17461   17462   17461   17464   17467   17470
   17461   17464   17467   17469   17461   17464   17467   17468
   17462   17461   17464   17467   17462   17461   17464   17466
   17462   17461   17464   17465   17463   17461   17464   17467
   17463   17461   17464   17466   17463   17461   17464   17465
   17464   17467   17470   17473   17464   17467   17470   17472
   17464   17467   17470   17471   17465   17464   17467   17470
   17465   17464   17467   17469   17465   17464   17467   17468
   17466   17464   17467   17470   17466   17464   17467   17469
   17466   17464   17467   17468   17468   17467   17470   17473
   17468   17467   17470   17472   17468   17467   17470   17471
   17469   17467   17470   17473   17469   17467   17470   17472
   17469   17467   17470   17471   17474   17477   17480   17483
   17474   17477   17480   17482   17474   17477   17480   17481
   17475   17474   17477   17480   17475   17474   17477   17479
   17475   17474   17477   17478   17476   17474   17477   17480
   17476   17474   17477   17479   17476   17474   17477   17478
   17477   17480   17483   17486   17477   17480   17483   17485
   17477   17480   17483   17484   17478   17477   17480   17483
   17478   17477   17480   17482   17478   17477   17480   17481
   17479   17477   17480   17483   17479   17477   17480   17482
   17479   17477   17480   17481   17480   17483   17486   17489
   17480   17483   17486   17488   17480   17483   17486   17487
   17481   17480   17483   17486   17481   17480   17483   17485
   17481   17480   17483   17484   17482   17480   17483   17486
   17482   17480   17483   17485   17482   17480   17483   17484
   17483   17486   17489   17492   17483   17486   17489   17491
   17483   17486   17489   17490   17484   17483   17486   17489
   17484   17483   17486   17488   17484   17483   17486   17487
   17485   17483   17486   17489   17485   17483   17486   17488
   17485   17483   17486   17487   17486   17489   17492   17495
   17486   17489   17492   17494   17486   17489   17492   17493
   17487   17486   17489   17492   17487   17486   17489   17491
   17487   17486   17489   17490   17488   17486   17489   17492
   17488   17486   17489   17491   17488   17486   17489   17490
   17489   17492   17495   17498   17489   17492   17495   17497
   17489   17492   17495   17496   17490   17489   17492   17495
   17490   17489   17492   17494   17490   17489   17492   17493
   17491   17489   17492   17495   17491   17489   17492   17494
   17491   17489   17492   17493   17492   17495   17498   17501
   17492   17495   17498   17500   17492   17495   17498   17499
   17493   17492   17495   17498   17493   17492   17495   17497
   17493   17492   17495   17496   17494   17492   17495   17498
   17494   17492   17495   17497   17494   17492   17495   17496
   17495   17498   17501   17504   17495   17498   17501   17503
   17495   17498   17501   17502   17496   17495   17498   17501
   17496   17495   17498   17500   17496   17495   17498   17499
   17497   17495   17498   17501   17497   17495   17498   17500
   17497   17495   17498   17499   17498   17501   17504   17507
   17498   17501   17504   17506   17498   17501   17504   17505
   17499   17498   17501   17504   17499   17498   17501   17503
   17499   17498   17501   17502   17500   17498   17501   17504
   17500   17498   17501   17503   17500   17498   17501   17502
   17501   17504   17507   17510   17501   17504   17507   17509
   17501   17504   17507   17508   17502   17501   17504   17507
   17502   17501   17504   17506   17502   17501   17504   17505
   17503   17501   17504   17507   17503   17501   17504   17506
   17503   17501   17504   17505   17504   17507   17510   17513
   17504   17507   17510   17512   17504   17507   17510   17511
   17505   17504   17507   17510   17505   17504   17507   17509
   17505   17504   17507   17508   17506   17504   17507   17510
   17506   17504   17507   17509   17506   17504   17507   17508
   17507   17510   17513   17516   17507   17510   17513   17515
   17507   17510   17513   17514   17508   17507   17510   17513
   17508   17507   17510   17512   17508   17507   17510   17511
   17509   17507   17510   17513   17509   17507   17510   17512
   17509   17507   17510   17511   17511   17510   17513   17516
   17511   17510   17513   17515   17511   17510   17513   17514
   17512   17510   17513   17516   17512   17510   17513   17515
   17512   17510   17513   17514   17517   17518   17533   17539
   17517   17518   17533   17535   17517   17518   17533   17534
   17518   17533   17539   17536   17518   17517   17529   17532
   17518   17517   17529   17531   17518   17517   17529   17530
   17518   17517   17525   17528   17518   17517   17525   17527
   17518   17517   17525   17526   17518   17517   17521   17524
   17518   17517   17521   17523   17518   17517   17521   17522
   17519   17518   17533   17539   17519   17518   17533   17535
   17519   17518   17533   17534   17529   17517   17518   17519
   17525   17517   17518   17519   17521   17517   17518   17519
   17520   17518   17533   17539   17520   17518   17533   17535
   17520   17518   17533   17534   17529   17517   17518   17520
   17525   17517   17518   17520   17521   17517   17518   17520
   17521   17517   17518   17533   17521   17517   17529   17532
   17521   17517   17529   17531   17521   17517   17529   17530
   17521   17517   17525   17528   17521   17517   17525   17527
   17521   17517   17525   17526   17529   17517   17521   17522
   17525   17517   17521   17522   17529   17517   17521   17523
   17525   17517   17521   17523   17529   17517   17521   17524
   17525   17517   17521   17524   17525   17517   17518   17533
   17525   17517   17529   17532   17525   17517   17529   17531
   17525   17517   17529   17530   17529   17517   17525   17526
   17529   17517   17525   17527   17529   17517   17525   17528
   17529   17517   17518   17533   17538   17536   17539   17533
   17537   17536   17539   17533   17540   17536   17539   17533
   17534   17533   17539   17536   17535   17533   17539   17536
   17536   17540   17541   17544   17536   17540   17541   17543
   17536   17540   17541   17542   17537   17536   17540   17541
   17538   17536   17540   17541   17539   17536   17540   17541
   17540   17541   17544   17546   17540   17541   17544   17552
   17540   17541   17544   17545   17541   17544   17546   17547
   17541   17544   17552   17555   17541   17544   17552   17554
   17541   17544   17552   17553   17542   17541   17544   17546
   17542   17541   17544   17552   17542   17541   17544   17545
   17543   17541   17544   17546   17543   17541   17544   17552
   17543   17541   17544   17545   17544   17546   17547   17548
   17544   17546   17547   17549   17544   17552   17555   17556
   17545   17544   17546   17547   17545   17544   17552   17555
   17545   17544   17552   17554   17545   17544   17552   17553
   17546   17547   17549   17561   17546   17547   17549   17551
   17546   17547   17549   17550   17546   17544   17552   17555
   17546   17544   17552   17554   17546   17544   17552   17553
   17547   17549   17561   17564   17547   17549   17561   17563
   17547   17549   17561   17562   17552   17544   17546   17547
   17548   17547   17549   17561   17548   17547   17549   17551
   17548   17547   17549   17550   17549   17561   17564   17567
   17549   17561   17564   17566   17549   17561   17564   17565
   17550   17549   17561   17564   17550   17549   17561   17563
   17550   17549   17561   17562   17551   17549   17561   17564
   17551   17549   17561   17563   17551   17549   17561   17562
   17552   17555   17556   17557   17552   17555   17556   17558
   17553   17552   17555   17556   17554   17552   17555   17556
   17555   17556   17558   17608   17555   17556   17558   17560
   17555   17556   17558   17559   17556   17558   17608   17611
   17556   17558   17608   17610   17556   17558   17608   17609
   17557   17556   17558   17608   17557   17556   17558   17560
   17557   17556   17558   17559   17558   17608   17611   17614
   17558   17608   17611   17613   17558   17608   17611   17612
   17559   17558   17608   17611   17559   17558   17608   17610
   17559   17558   17608   17609   17560   17558   17608   17611
   17560   17558   17608   17610   17560   17558   17608   17609
   17561   17564   17567   17570   17561   17564   17567   17569
   17561   17564   17567   17568   17562   17561   17564   17567
   17562   17561   17564   17566   17562   17561   17564   17565
   17563   17561   17564   17567   17563   17561   17564   17566
   17563   17561   17564   17565   17564   17567   17570   17573
   17564   17567   17570   17572   17564   17567   17570   17571
   17565   17564   17567   17570   17565   17564   17567   17569
   17565   17564   17567   17568   17566   17564   17567   17570
   17566   17564   17567   17569   17566   17564   17567   17568
   17567   17570   17573   17576   17567   17570   17573   17575
   17567   17570   17573   17574   17568   17567   17570   17573
   17568   17567   17570   17572   17568   17567   17570   17571
   17569   17567   17570   17573   17569   17567   17570   17572
   17569   17567   17570   17571   17570   17573   17576   17579
   17570   17573   17576   17578   17570   17573   17576   17577
   17571   17570   17573   17576   17571   17570   17573   17575
   17571   17570   17573   17574   17572   17570   17573   17576
   17572   17570   17573   17575   17572   17570   17573   17574
   17573   17576   17579   17581   17573   17576   17579   17580
   17574   17573   17576   17579   17574   17573   17576   17578
   17574   17573   17576   17577   17575   17573   17576   17579
   17575   17573   17576   17578   17575   17573   17576   17577
   17576   17579   17581   17583   17576   17579   17581   17582
   17577   17576   17579   17581   17577   17576   17579   17580
   17578   17576   17579   17581   17578   17576   17579   17580
   17579   17581   17583   17586   17579   17581   17583   17585
   17579   17581   17583   17584   17580   17579   17581   17583
   17580   17579   17581   17582   17581   17583   17586   17589
   17581   17583   17586   17588   17581   17583   17586   17587
   17582   17581   17583   17586   17582   17581   17583   17585
   17582   17581   17583   17584   17583   17586   17589   17592
   17583   17586   17589   17591   17583   17586   17589   17590
   17584   17583   17586   17589   17584   17583   17586   17588
   17584   17583   17586   17587   17585   17583   17586   17589
   17585   17583   17586   17588   17585   17583   17586   17587
   17586   17589   17592   17595   17586   17589   17592   17594
   17586   17589   17592   17593   17587   17586   17589   17592
   17587   17586   17589   17591   17587   17586   17589   17590
   17588   17586   17589   17592   17588   17586   17589   17591
   17588   17586   17589   17590   17589   17592   17595   17598
   17589   17592   17595   17597   17589   17592   17595   17596
   17590   17589   17592   17595   17590   17589   17592   17594
   17590   17589   17592   17593   17591   17589   17592   17595
   17591   17589   17592   17594   17591   17589   17592   17593
   17592   17595   17598   17601   17592   17595   17598   17600
   17592   17595   17598   17599   17593   17592   17595   17598
   17593   17592   17595   17597   17593   17592   17595   17596
   17594   17592   17595   17598   17594   17592   17595   17597
   17594   17592   17595   17596   17595   17598   17601   17604
   17595   17598   17601   17603   17595   17598   17601   17602
   17596   17595   17598   17601   17596   17595   17598   17600
   17596   17595   17598   17599   17597   17595   17598   17601
   17597   17595   17598   17600   17597   17595   17598   17599
   17598   17601   17604   17607   17598   17601   17604   17606
   17598   17601   17604   17605   17599   17598   17601   17604
   17599   17598   17601   17603   17599   17598   17601   17602
   17600   17598   17601   17604   17600   17598   17601   17603
   17600   17598   17601   17602   17602   17601   17604   17607
   17602   17601   17604   17606   17602   17601   17604   17605
   17603   17601   17604   17607   17603   17601   17604   17606
   17603   17601   17604   17605   17608   17611   17614   17617
   17608   17611   17614   17616   17608   17611   17614   17615
   17609   17608   17611   17614   17609   17608   17611   17613
   17609   17608   17611   17612   17610   17608   17611   17614
   17610   17608   17611   17613   17610   17608   17611   17612
   17611   17614   17617   17620   17611   17614   17617   17619
   17611   17614   17617   17618   17612   17611   17614   17617
   17612   17611   17614   17616   17612   17611   17614   17615
   17613   17611   17614   17617   17613   17611   17614   17616
   17613   17611   17614   17615   17614   17617   17620   17623
   17614   17617   17620   17622   17614   17617   17620   17621
   17615   17614   17617   17620   17615   17614   17617   17619
   17615   17614   17617   17618   17616   17614   17617   17620
   17616   17614   17617   17619   17616   17614   17617   17618
   17617   17620   17623   17626   17617   17620   17623   17625
   17617   17620   17623   17624   17618   17617   17620   17623
   17618   17617   17620   17622   17618   17617   17620   17621
   17619   17617   17620   17623   17619   17617   17620   17622
   17619   17617   17620   17621   17620   17623   17626   17629
   17620   17623   17626   17628   17620   17623   17626   17627
   17621   17620   17623   17626   17621   17620   17623   17625
   17621   17620   17623   17624   17622   17620   17623   17626
   17622   17620   17623   17625   17622   17620   17623   17624
   17623   17626   17629   17632   17623   17626   17629   17631
   17623   17626   17629   17630   17624   17623   17626   17629
   17624   17623   17626   17628   17624   17623   17626   17627
   17625   17623   17626   17629   17625   17623   17626   17628
   17625   17623   17626   17627   17626   17629   17632   17635
   17626   17629   17632   17634   17626   17629   17632   17633
   17627   17626   17629   17632   17627   17626   17629   17631
   17627   17626   17629   17630   17628   17626   17629   17632
   17628   17626   17629   17631   17628   17626   17629   17630
   17629   17632   17635   17638   17629   17632   17635   17637
   17629   17632   17635   17636   17630   17629   17632   17635
   17630   17629   17632   17634   17630   17629   17632   17633
   17631   17629   17632   17635   17631   17629   17632   17634
   17631   17629   17632   17633   17632   17635   17638   17641
   17632   17635   17638   17640   17632   17635   17638   17639
   17633   17632   17635   17638   17633   17632   17635   17637
   17633   17632   17635   17636   17634   17632   17635   17638
   17634   17632   17635   17637   17634   17632   17635   17636
   17635   17638   17641   17644   17635   17638   17641   17643
   17635   17638   17641   17642   17636   17635   17638   17641
   17636   17635   17638   17640   17636   17635   17638   17639
   17637   17635   17638   17641   17637   17635   17638   17640
   17637   17635   17638   17639   17638   17641   17644   17647
   17638   17641   17644   17646   17638   17641   17644   17645
   17639   17638   17641   17644   17639   17638   17641   17643
   17639   17638   17641   17642   17640   17638   17641   17644
   17640   17638   17641   17643   17640   17638   17641   17642
   17641   17644   17647   17650   17641   17644   17647   17649
   17641   17644   17647   17648   17642   17641   17644   17647
   17642   17641   17644   17646   17642   17641   17644   17645
   17643   17641   17644   17647   17643   17641   17644   17646
   17643   17641   17644   17645   17645   17644   17647   17650
   17645   17644   17647   17649   17645   17644   17647   17648
   17646   17644   17647   17650   17646   17644   17647   17649
   17646   17644   17647   17648   17651   17655   17658   17665
   17651   17655   17658   17660   17651   17655   17658   17659
   17652   17651   17655   17658   17652   17651   17655   17657
   17652   17651   17655   17656   17653   17651   17655   17658
   17653   17651   17655   17657   17653   17651   17655   17656
   17654   17651   17655   17658   17654   17651   17655   17657
   17654   17651   17655   17656   17655   17658   17665   17661
   17656   17655   17658   17665   17656   17655   17658   17660
   17656   17655   17658   17659   17657   17655   17658   17665
   17657   17655   17658   17660   17657   17655   17658   17659
   17663   17661   17665   17658   17662   17661   17665   17658
   17664   17661   17665   17658   17659   17658   17665   17661
   17660   17658   17665   17661   17661   17664   17666   17669
   17661   17664   17666   17668   17661   17664   17666   17667
   17662   17661   17664   17666   17663   17661   17664   17666
   17664   17666   17669   17671   17664   17666   17669   17677
   17664   17666   17669   17670   17665   17661   17664   17666
   17666   17669   17671   17672   17666   17669   17677   17680
   17666   17669   17677   17679   17666   17669   17677   17678
   17667   17666   17669   17671   17667   17666   17669   17677
   17667   17666   17669   17670   17668   17666   17669   17671
   17668   17666   17669   17677   17668   17666   17669   17670
   17669   17671   17672   17673   17669   17671   17672   17674
   17669   17677   17680   17681   17670   17669   17671   17672
   17670   17669   17677   17680   17670   17669   17677   17679
   17670   17669   17677   17678   17671   17672   17674   17686
   17671   17672   17674   17676   17671   17672   17674   17675
   17671   17669   17677   17680   17671   17669   17677   17679
   17671   17669   17677   17678   17672   17674   17686   17689
   17672   17674   17686   17688   17672   17674   17686   17687
   17677   17669   17671   17672   17673   17672   17674   17686
   17673   17672   17674   17676   17673   17672   17674   17675
   17674   17686   17689   17692   17674   17686   17689   17691
   17674   17686   17689   17690   17675   17674   17686   17689
   17675   17674   17686   17688   17675   17674   17686   17687
   17676   17674   17686   17689   17676   17674   17686   17688
   17676   17674   17686   17687   17677   17680   17681   17682
   17677   17680   17681   17683   17678   17677   17680   17681
   17679   17677   17680   17681   17680   17681   17683   17733
   17680   17681   17683   17685   17680   17681   17683   17684
   17681   17683   17733   17736   17681   17683   17733   17735
   17681   17683   17733   17734   17682   17681   17683   17733
   17682   17681   17683   17685   17682   17681   17683   17684
   17683   17733   17736   17739   17683   17733   17736   17738
   17683   17733   17736   17737   17684   17683   17733   17736
   17684   17683   17733   17735   17684   17683   17733   17734
   17685   17683   17733   17736   17685   17683   17733   17735
   17685   17683   17733   17734   17686   17689   17692   17695
   17686   17689   17692   17694   17686   17689   17692   17693
   17687   17686   17689   17692   17687   17686   17689   17691
   17687   17686   17689   17690   17688   17686   17689   17692
   17688   17686   17689   17691   17688   17686   17689   17690
   17689   17692   17695   17698   17689   17692   17695   17697
   17689   17692   17695   17696   17690   17689   17692   17695
   17690   17689   17692   17694   17690   17689   17692   17693
   17691   17689   17692   17695   17691   17689   17692   17694
   17691   17689   17692   17693   17692   17695   17698   17701
   17692   17695   17698   17700   17692   17695   17698   17699
   17693   17692   17695   17698   17693   17692   17695   17697
   17693   17692   17695   17696   17694   17692   17695   17698
   17694   17692   17695   17697   17694   17692   17695   17696
   17695   17698   17701   17704   17695   17698   17701   17703
   17695   17698   17701   17702   17696   17695   17698   17701
   17696   17695   17698   17700   17696   17695   17698   17699
   17697   17695   17698   17701   17697   17695   17698   17700
   17697   17695   17698   17699   17698   17701   17704   17706
   17698   17701   17704   17705   17699   17698   17701   17704
   17699   17698   17701   17703   17699   17698   17701   17702
   17700   17698   17701   17704   17700   17698   17701   17703
   17700   17698   17701   17702   17701   17704   17706   17708
   17701   17704   17706   17707   17702   17701   17704   17706
   17702   17701   17704   17705   17703   17701   17704   17706
   17703   17701   17704   17705   17704   17706   17708   17711
   17704   17706   17708   17710   17704   17706   17708   17709
   17705   17704   17706   17708   17705   17704   17706   17707
   17706   17708   17711   17714   17706   17708   17711   17713
   17706   17708   17711   17712   17707   17706   17708   17711
   17707   17706   17708   17710   17707   17706   17708   17709
   17708   17711   17714   17717   17708   17711   17714   17716
   17708   17711   17714   17715   17709   17708   17711   17714
   17709   17708   17711   17713   17709   17708   17711   17712
   17710   17708   17711   17714   17710   17708   17711   17713
   17710   17708   17711   17712   17711   17714   17717   17720
   17711   17714   17717   17719   17711   17714   17717   17718
   17712   17711   17714   17717   17712   17711   17714   17716
   17712   17711   17714   17715   17713   17711   17714   17717
   17713   17711   17714   17716   17713   17711   17714   17715
   17714   17717   17720   17723   17714   17717   17720   17722
   17714   17717   17720   17721   17715   17714   17717   17720
   17715   17714   17717   17719   17715   17714   17717   17718
   17716   17714   17717   17720   17716   17714   17717   17719
   17716   17714   17717   17718   17717   17720   17723   17726
   17717   17720   17723   17725   17717   17720   17723   17724
   17718   17717   17720   17723   17718   17717   17720   17722
   17718   17717   17720   17721   17719   17717   17720   17723
   17719   17717   17720   17722   17719   17717   17720   17721
   17720   17723   17726   17729   17720   17723   17726   17728
   17720   17723   17726   17727   17721   17720   17723   17726
   17721   17720   17723   17725   17721   17720   17723   17724
   17722   17720   17723   17726   17722   17720   17723   17725
   17722   17720   17723   17724   17723   17726   17729   17732
   17723   17726   17729   17731   17723   17726   17729   17730
   17724   17723   17726   17729   17724   17723   17726   17728
   17724   17723   17726   17727   17725   17723   17726   17729
   17725   17723   17726   17728   17725   17723   17726   17727
   17727   17726   17729   17732   17727   17726   17729   17731
   17727   17726   17729   17730   17728   17726   17729   17732
   17728   17726   17729   17731   17728   17726   17729   17730
   17733   17736   17739   17742   17733   17736   17739   17741
   17733   17736   17739   17740   17734   17733   17736   17739
   17734   17733   17736   17738   17734   17733   17736   17737
   17735   17733   17736   17739   17735   17733   17736   17738
   17735   17733   17736   17737   17736   17739   17742   17745
   17736   17739   17742   17744   17736   17739   17742   17743
   17737   17736   17739   17742   17737   17736   17739   17741
   17737   17736   17739   17740   17738   17736   17739   17742
   17738   17736   17739   17741   17738   17736   17739   17740
   17739   17742   17745   17748   17739   17742   17745   17747
   17739   17742   17745   17746   17740   17739   17742   17745
   17740   17739   17742   17744   17740   17739   17742   17743
   17741   17739   17742   17745   17741   17739   17742   17744
   17741   17739   17742   17743   17742   17745   17748   17751
   17742   17745   17748   17750   17742   17745   17748   17749
   17743   17742   17745   17748   17743   17742   17745   17747
   17743   17742   17745   17746   17744   17742   17745   17748
   17744   17742   17745   17747   17744   17742   17745   17746
   17745   17748   17751   17754   17745   17748   17751   17753
   17745   17748   17751   17752   17746   17745   17748   17751
   17746   17745   17748   17750   17746   17745   17748   17749
   17747   17745   17748   17751   17747   17745   17748   17750
   17747   17745   17748   17749   17748   17751   17754   17757
   17748   17751   17754   17756   17748   17751   17754   17755
   17749   17748   17751   17754   17749   17748   17751   17753
   17749   17748   17751   17752   17750   17748   17751   17754
   17750   17748   17751   17753   17750   17748   17751   17752
   17751   17754   17757   17760   17751   17754   17757   17759
   17751   17754   17757   17758   17752   17751   17754   17757
   17752   17751   17754   17756   17752   17751   17754   17755
   17753   17751   17754   17757   17753   17751   17754   17756
   17753   17751   17754   17755   17754   17757   17760   17763
   17754   17757   17760   17762   17754   17757   17760   17761
   17755   17754   17757   17760   17755   17754   17757   17759
   17755   17754   17757   17758   17756   17754   17757   17760
   17756   17754   17757   17759   17756   17754   17757   17758
   17757   17760   17763   17766   17757   17760   17763   17765
   17757   17760   17763   17764   17758   17757   17760   17763
   17758   17757   17760   17762   17758   17757   17760   17761
   17759   17757   17760   17763   17759   17757   17760   17762
   17759   17757   17760   17761   17760   17763   17766   17769
   17760   17763   17766   17768   17760   17763   17766   17767
   17761   17760   17763   17766   17761   17760   17763   17765
   17761   17760   17763   17764   17762   17760   17763   17766
   17762   17760   17763   17765   17762   17760   17763   17764
   17763   17766   17769   17772   17763   17766   17769   17771
   17763   17766   17769   17770   17764   17763   17766   17769
   17764   17763   17766   17768   17764   17763   17766   17767
   17765   17763   17766   17769   17765   17763   17766   17768
   17765   17763   17766   17767   17766   17769   17772   17775
   17766   17769   17772   17774   17766   17769   17772   17773
   17767   17766   17769   17772   17767   17766   17769   17771
   17767   17766   17769   17770   17768   17766   17769   17772
   17768   17766   17769   17771   17768   17766   17769   17770
   17770   17769   17772   17775   17770   17769   17772   17774
   17770   17769   17772   17773   17771   17769   17772   17775
   17771   17769   17772   17774   17771   17769   17772   17773
   17776   17777   17792   17798   17776   17777   17792   17794
   17776   17777   17792   17793   17777   17792   17798   17795
   17777   17776   17788   17791   17777   17776   17788   17790
   17777   17776   17788   17789   17777   17776   17784   17787
   17777   17776   17784   17786   17777   17776   17784   17785
   17777   17776   17780   17783   17777   17776   17780   17782
   17777   17776   17780   17781   17778   17777   17792   17798
   17778   17777   17792   17794   17778   17777   17792   17793
   17788   17776   17777   17778   17784   17776   17777   17778
   17780   17776   17777   17778   17779   17777   17792   17798
   17779   17777   17792   17794   17779   17777   17792   17793
   17788   17776   17777   17779   17784   17776   17777   17779
   17780   17776   17777   17779   17780   17776   17777   17792
   17780   17776   17788   17791   17780   17776   17788   17790
   17780   17776   17788   17789   17780   17776   17784   17787
   17780   17776   17784   17786   17780   17776   17784   17785
   17788   17776   17780   17781   17784   17776   17780   17781
   17788   17776   17780   17782   17784   17776   17780   17782
   17788   17776   17780   17783   17784   17776   17780   17783
   17784   17776   17777   17792   17784   17776   17788   17791
   17784   17776   17788   17790   17784   17776   17788   17789
   17788   17776   17784   17785   17788   17776   17784   17786
   17788   17776   17784   17787   17788   17776   17777   17792
   17797   17795   17798   17792   17796   17795   17798   17792
   17799   17795   17798   17792   17793   17792   17798   17795
   17794   17792   17798   17795   17795   17799   17800   17803
   17795   17799   17800   17802   17795   17799   17800   17801
   17796   17795   17799   17800   17797   17795   17799   17800
   17798   17795   17799   17800   17799   17800   17803   17805
   17799   17800   17803   17811   17799   17800   17803   17804
   17800   17803   17805   17806   17800   17803   17811   17814
   17800   17803   17811   17813   17800   17803   17811   17812
   17801   17800   17803   17805   17801   17800   17803   17811
   17801   17800   17803   17804   17802   17800   17803   17805
   17802   17800   17803   17811   17802   17800   17803   17804
   17803   17805   17806   17807   17803   17805   17806   17808
   17803   17811   17814   17815   17804   17803   17805   17806
   17804   17803   17811   17814   17804   17803   17811   17813
   17804   17803   17811   17812   17805   17806   17808   17820
   17805   17806   17808   17810   17805   17806   17808   17809
   17805   17803   17811   17814   17805   17803   17811   17813
   17805   17803   17811   17812   17806   17808   17820   17823
   17806   17808   17820   17822   17806   17808   17820   17821
   17811   17803   17805   17806   17807   17806   17808   17820
   17807   17806   17808   17810   17807   17806   17808   17809
   17808   17820   17823   17826   17808   17820   17823   17825
   17808   17820   17823   17824   17809   17808   17820   17823
   17809   17808   17820   17822   17809   17808   17820   17821
   17810   17808   17820   17823   17810   17808   17820   17822
   17810   17808   17820   17821   17811   17814   17815   17816
   17811   17814   17815   17817   17812   17811   17814   17815
   17813   17811   17814   17815   17814   17815   17817   17867
   17814   17815   17817   17819   17814   17815   17817   17818
   17815   17817   17867   17870   17815   17817   17867   17869
   17815   17817   17867   17868   17816   17815   17817   17867
   17816   17815   17817   17819   17816   17815   17817   17818
   17817   17867   17870   17873   17817   17867   17870   17872
   17817   17867   17870   17871   17818   17817   17867   17870
   17818   17817   17867   17869   17818   17817   17867   17868
   17819   17817   17867   17870   17819   17817   17867   17869
   17819   17817   17867   17868   17820   17823   17826   17829
   17820   17823   17826   17828   17820   17823   17826   17827
   17821   17820   17823   17826   17821   17820   17823   17825
   17821   17820   17823   17824   17822   17820   17823   17826
   17822   17820   17823   17825   17822   17820   17823   17824
   17823   17826   17829   17832   17823   17826   17829   17831
   17823   17826   17829   17830   17824   17823   17826   17829
   17824   17823   17826   17828   17824   17823   17826   17827
   17825   17823   17826   17829   17825   17823   17826   17828
   17825   17823   17826   17827   17826   17829   17832   17835
   17826   17829   17832   17834   17826   17829   17832   17833
   17827   17826   17829   17832   17827   17826   17829   17831
   17827   17826   17829   17830   17828   17826   17829   17832
   17828   17826   17829   17831   17828   17826   17829   17830
   17829   17832   17835   17838   17829   17832   17835   17837
   17829   17832   17835   17836   17830   17829   17832   17835
   17830   17829   17832   17834   17830   17829   17832   17833
   17831   17829   17832   17835   17831   17829   17832   17834
   17831   17829   17832   17833   17832   17835   17838   17840
   17832   17835   17838   17839   17833   17832   17835   17838
   17833   17832   17835   17837   17833   17832   17835   17836
   17834   17832   17835   17838   17834   17832   17835   17837
   17834   17832   17835   17836   17835   17838   17840   17842
   17835   17838   17840   17841   17836   17835   17838   17840
   17836   17835   17838   17839   17837   17835   17838   17840
   17837   17835   17838   17839   17838   17840   17842   17845
   17838   17840   17842   17844   17838   17840   17842   17843
   17839   17838   17840   17842   17839   17838   17840   17841
   17840   17842   17845   17848   17840   17842   17845   17847
   17840   17842   17845   17846   17841   17840   17842   17845
   17841   17840   17842   17844   17841   17840   17842   17843
   17842   17845   17848   17851   17842   17845   17848   17850
   17842   17845   17848   17849   17843   17842   17845   17848
   17843   17842   17845   17847   17843   17842   17845   17846
   17844   17842   17845   17848   17844   17842   17845   17847
   17844   17842   17845   17846   17845   17848   17851   17854
   17845   17848   17851   17853   17845   17848   17851   17852
   17846   17845   17848   17851   17846   17845   17848   17850
   17846   17845   17848   17849   17847   17845   17848   17851
   17847   17845   17848   17850   17847   17845   17848   17849
   17848   17851   17854   17857   17848   17851   17854   17856
   17848   17851   17854   17855   17849   17848   17851   17854
   17849   17848   17851   17853   17849   17848   17851   17852
   17850   17848   17851   17854   17850   17848   17851   17853
   17850   17848   17851   17852   17851   17854   17857   17860
   17851   17854   17857   17859   17851   17854   17857   17858
   17852   17851   17854   17857   17852   17851   17854   17856
   17852   17851   17854   17855   17853   17851   17854   17857
   17853   17851   17854   17856   17853   17851   17854   17855
   17854   17857   17860   17863   17854   17857   17860   17862
   17854   17857   17860   17861   17855   17854   17857   17860
   17855   17854   17857   17859   17855   17854   17857   17858
   17856   17854   17857   17860   17856   17854   17857   17859
   17856   17854   17857   17858   17857   17860   17863   17866
   17857   17860   17863   17865   17857   17860   17863   17864
   17858   17857   17860   17863   17858   17857   17860   17862
   17858   17857   17860   17861   17859   17857   17860   17863
   17859   17857   17860   17862   17859   17857   17860   17861
   17861   17860   17863   17866   17861   17860   17863   17865
   17861   17860   17863   17864   17862   17860   17863   17866
   17862   17860   17863   17865   17862   17860   17863   17864
   17867   17870   17873   17876   17867   17870   17873   17875
   17867   17870   17873   17874   17868   17867   17870   17873
   17868   17867   17870   17872   17868   17867   17870   17871
   17869   17867   17870   17873   17869   17867   17870   17872
   17869   17867   17870   17871   17870   17873   17876   17879
   17870   17873   17876   17878   17870   17873   17876   17877
   17871   17870   17873   17876   17871   17870   17873   17875
   17871   17870   17873   17874   17872   17870   17873   17876
   17872   17870   17873   17875   17872   17870   17873   17874
   17873   17876   17879   17882   17873   17876   17879   17881
   17873   17876   17879   17880   17874   17873   17876   17879
   17874   17873   17876   17878   17874   17873   17876   17877
   17875   17873   17876   17879   17875   17873   17876   17878
   17875   17873   17876   17877   17876   17879   17882   17885
   17876   17879   17882   17884   17876   17879   17882   17883
   17877   17876   17879   17882   17877   17876   17879   17881
   17877   17876   17879   17880   17878   17876   17879   17882
   17878   17876   17879   17881   17878   17876   17879   17880
   17879   17882   17885   17888   17879   17882   17885   17887
   17879   17882   17885   17886   17880   17879   17882   17885
   17880   17879   17882   17884   17880   17879   17882   17883
   17881   17879   17882   17885   17881   17879   17882   17884
   17881   17879   17882   17883   17882   17885   17888   17891
   17882   17885   17888   17890   17882   17885   17888   17889
   17883   17882   17885   17888   17883   17882   17885   17887
   17883   17882   17885   17886   17884   17882   17885   17888
   17884   17882   17885   17887   17884   17882   17885   17886
   17885   17888   17891   17894   17885   17888   17891   17893
   17885   17888   17891   17892   17886   17885   17888   17891
   17886   17885   17888   17890   17886   17885   17888   17889
   17887   17885   17888   17891   17887   17885   17888   17890
   17887   17885   17888   17889   17888   17891   17894   17897
   17888   17891   17894   17896   17888   17891   17894   17895
   17889   17888   17891   17894   17889   17888   17891   17893
   17889   17888   17891   17892   17890   17888   17891   17894
   17890   17888   17891   17893   17890   17888   17891   17892
   17891   17894   17897   17900   17891   17894   17897   17899
   17891   17894   17897   17898   17892   17891   17894   17897
   17892   17891   17894   17896   17892   17891   17894   17895
   17893   17891   17894   17897   17893   17891   17894   17896
   17893   17891   17894   17895   17894   17897   17900   17903
   17894   17897   17900   17902   17894   17897   17900   17901
   17895   17894   17897   17900   17895   17894   17897   17899
   17895   17894   17897   17898   17896   17894   17897   17900
   17896   17894   17897   17899   17896   17894   17897   17898
   17897   17900   17903   17906   17897   17900   17903   17905
   17897   17900   17903   17904   17898   17897   17900   17903
   17898   17897   17900   17902   17898   17897   17900   17901
   17899   17897   17900   17903   17899   17897   17900   17902
   17899   17897   17900   17901   17900   17903   17906   17909
   17900   17903   17906   17908   17900   17903   17906   17907
   17901   17900   17903   17906   17901   17900   17903   17905
   17901   17900   17903   17904   17902   17900   17903   17906
   17902   17900   17903   17905   17902   17900   17903   17904
   17904   17903   17906   17909   17904   17903   17906   17908
   17904   17903   17906   17907   17905   17903   17906   17909
   17905   17903   17906   17908   17905   17903   17906   17907
   17910   17914   17919   17925   17910   17914   17919   17921
   17910   17914   17919   17920   17910   17914   17916   17917
   17910   17914   17916   17918   17911   17910   17914   17919
   17911   17910   17914   17915   17911   17910   17914   17916
   17912   17910   17914   17919   17912   17910   17914   17915
   17912   17910   17914   17916   17913   17910   17914   17919
   17913   17910   17914   17915   17913   17910   17914   17916
   17914   17919   17925   17922   17915   17914   17919   17925
   17915   17914   17919   17921   17915   17914   17919   17920
   17915   17914   17916   17917   17915   17914   17916   17918
   17916   17914   17919   17925   17916   17914   17919   17921
   17916   17914   17919   17920   17919   17914   17916   17917
   17919   17914   17916   17918   17924   17922   17925   17919
   17923   17922   17925   17919   17926   17922   17925   17919
   17920   17919   17925   17922   17921   17919   17925   17922
   17922   17926   17927   17930   17922   17926   17927   17929
   17922   17926   17927   17928   17923   17922   17926   17927
   17924   17922   17926   17927   17925   17922   17926   17927
   17926   17927   17930   17932   17926   17927   17930   17938
   17926   17927   17930   17931   17927   17930   17932   17933
   17927   17930   17938   17941   17927   17930   17938   17940
   17927   17930   17938   17939   17928   17927   17930   17932
   17928   17927   17930   17938   17928   17927   17930   17931
   17929   17927   17930   17932   17929   17927   17930   17938
   17929   17927   17930   17931   17930   17932   17933   17934
   17930   17932   17933   17935   17930   17938   17941   17942
   17931   17930   17932   17933   17931   17930   17938   17941
   17931   17930   17938   17940   17931   17930   17938   17939
   17932   17933   17935   17947   17932   17933   17935   17937
   17932   17933   17935   17936   17932   17930   17938   17941
   17932   17930   17938   17940   17932   17930   17938   17939
   17933   17935   17947   17950   17933   17935   17947   17949
   17933   17935   17947   17948   17938   17930   17932   17933
   17934   17933   17935   17947   17934   17933   17935   17937
   17934   17933   17935   17936   17935   17947   17950   17953
   17935   17947   17950   17952   17935   17947   17950   17951
   17936   17935   17947   17950   17936   17935   17947   17949
   17936   17935   17947   17948   17937   17935   17947   17950
   17937   17935   17947   17949   17937   17935   17947   17948
   17938   17941   17942   17943   17938   17941   17942   17944
   17939   17938   17941   17942   17940   17938   17941   17942
   17941   17942   17944   17994   17941   17942   17944   17946
   17941   17942   17944   17945   17942   17944   17994   17997
   17942   17944   17994   17996   17942   17944   17994   17995
   17943   17942   17944   17994   17943   17942   17944   17946
   17943   17942   17944   17945   17944   17994   17997   18000
   17944   17994   17997   17999   17944   17994   17997   17998
   17945   17944   17994   17997   17945   17944   17994   17996
   17945   17944   17994   17995   17946   17944   17994   17997
   17946   17944   17994   17996   17946   17944   17994   17995
   17947   17950   17953   17956   17947   17950   17953   17955
   17947   17950   17953   17954   17948   17947   17950   17953
   17948   17947   17950   17952   17948   17947   17950   17951
   17949   17947   17950   17953   17949   17947   17950   17952
   17949   17947   17950   17951   17950   17953   17956   17959
   17950   17953   17956   17958   17950   17953   17956   17957
   17951   17950   17953   17956   17951   17950   17953   17955
   17951   17950   17953   17954   17952   17950   17953   17956
   17952   17950   17953   17955   17952   17950   17953   17954
   17953   17956   17959   17962   17953   17956   17959   17961
   17953   17956   17959   17960   17954   17953   17956   17959
   17954   17953   17956   17958   17954   17953   17956   17957
   17955   17953   17956   17959   17955   17953   17956   17958
   17955   17953   17956   17957   17956   17959   17962   17965
   17956   17959   17962   17964   17956   17959   17962   17963
   17957   17956   17959   17962   17957   17956   17959   17961
   17957   17956   17959   17960   17958   17956   17959   17962
   17958   17956   17959   17961   17958   17956   17959   17960
   17959   17962   17965   17967   17959   17962   17965   17966
   17960   17959   17962   17965   17960   17959   17962   17964
   17960   17959   17962   17963   17961   17959   17962   17965
   17961   17959   17962   17964   17961   17959   17962   17963
   17962   17965   17967   17969   17962   17965   17967   17968
   17963   17962   17965   17967   17963   17962   17965   17966
   17964   17962   17965   17967   17964   17962   17965   17966
   17965   17967   17969   17972   17965   17967   17969   17971
   17965   17967   17969   17970   17966   17965   17967   17969
   17966   17965   17967   17968   17967   17969   17972   17975
   17967   17969   17972   17974   17967   17969   17972   17973
   17968   17967   17969   17972   17968   17967   17969   17971
   17968   17967   17969   17970   17969   17972   17975   17978
   17969   17972   17975   17977   17969   17972   17975   17976
   17970   17969   17972   17975   17970   17969   17972   17974
   17970   17969   17972   17973   17971   17969   17972   17975
   17971   17969   17972   17974   17971   17969   17972   17973
   17972   17975   17978   17981   17972   17975   17978   17980
   17972   17975   17978   17979   17973   17972   17975   17978
   17973   17972   17975   17977   17973   17972   17975   17976
   17974   17972   17975   17978   17974   17972   17975   17977
   17974   17972   17975   17976   17975   17978   17981   17984
   17975   17978   17981   17983   17975   17978   17981   17982
   17976   17975   17978   17981   17976   17975   17978   17980
   17976   17975   17978   17979   17977   17975   17978   17981
   17977   17975   17978   17980   17977   17975   17978   17979
   17978   17981   17984   17987   17978   17981   17984   17986
   17978   17981   17984   17985   17979   17978   17981   17984
   17979   17978   17981   17983   17979   17978   17981   17982
   17980   17978   17981   17984   17980   17978   17981   17983
   17980   17978   17981   17982   17981   17984   17987   17990
   17981   17984   17987   17989   17981   17984   17987   17988
   17982   17981   17984   17987   17982   17981   17984   17986
   17982   17981   17984   17985   17983   17981   17984   17987
   17983   17981   17984   17986   17983   17981   17984   17985
   17984   17987   17990   17993   17984   17987   17990   17992
   17984   17987   17990   17991   17985   17984   17987   17990
   17985   17984   17987   17989   17985   17984   17987   17988
   17986   17984   17987   17990   17986   17984   17987   17989
   17986   17984   17987   17988   17988   17987   17990   17993
   17988   17987   17990   17992   17988   17987   17990   17991
   17989   17987   17990   17993   17989   17987   17990   17992
   17989   17987   17990   17991   17994   17997   18000   18003
   17994   17997   18000   18002   17994   17997   18000   18001
   17995   17994   17997   18000   17995   17994   17997   17999
   17995   17994   17997   17998   17996   17994   17997   18000
   17996   17994   17997   17999   17996   17994   17997   17998
   17997   18000   18003   18006   17997   18000   18003   18005
   17997   18000   18003   18004   17998   17997   18000   18003
   17998   17997   18000   18002   17998   17997   18000   18001
   17999   17997   18000   18003   17999   17997   18000   18002
   17999   17997   18000   18001   18000   18003   18006   18009
   18000   18003   18006   18008   18000   18003   18006   18007
   18001   18000   18003   18006   18001   18000   18003   18005
   18001   18000   18003   18004   18002   18000   18003   18006
   18002   18000   18003   18005   18002   18000   18003   18004
   18003   18006   18009   18012   18003   18006   18009   18011
   18003   18006   18009   18010   18004   18003   18006   18009
   18004   18003   18006   18008   18004   18003   18006   18007
   18005   18003   18006   18009   18005   18003   18006   18008
   18005   18003   18006   18007   18006   18009   18012   18015
   18006   18009   18012   18014   18006   18009   18012   18013
   18007   18006   18009   18012   18007   18006   18009   18011
   18007   18006   18009   18010   18008   18006   18009   18012
   18008   18006   18009   18011   18008   18006   18009   18010
   18009   18012   18015   18018   18009   18012   18015   18017
   18009   18012   18015   18016   18010   18009   18012   18015
   18010   18009   18012   18014   18010   18009   18012   18013
   18011   18009   18012   18015   18011   18009   18012   18014
   18011   18009   18012   18013   18012   18015   18018   18021
   18012   18015   18018   18020   18012   18015   18018   18019
   18013   18012   18015   18018   18013   18012   18015   18017
   18013   18012   18015   18016   18014   18012   18015   18018
   18014   18012   18015   18017   18014   18012   18015   18016
   18015   18018   18021   18024   18015   18018   18021   18023
   18015   18018   18021   18022   18016   18015   18018   18021
   18016   18015   18018   18020   18016   18015   18018   18019
   18017   18015   18018   18021   18017   18015   18018   18020
   18017   18015   18018   18019   18018   18021   18024   18027
   18018   18021   18024   18026   18018   18021   18024   18025
   18019   18018   18021   18024   18019   18018   18021   18023
   18019   18018   18021   18022   18020   18018   18021   18024
   18020   18018   18021   18023   18020   18018   18021   18022
   18021   18024   18027   18030   18021   18024   18027   18029
   18021   18024   18027   18028   18022   18021   18024   18027
   18022   18021   18024   18026   18022   18021   18024   18025
   18023   18021   18024   18027   18023   18021   18024   18026
   18023   18021   18024   18025   18024   18027   18030   18033
   18024   18027   18030   18032   18024   18027   18030   18031
   18025   18024   18027   18030   18025   18024   18027   18029
   18025   18024   18027   18028   18026   18024   18027   18030
   18026   18024   18027   18029   18026   18024   18027   18028
   18027   18030   18033   18036   18027   18030   18033   18035
   18027   18030   18033   18034   18028   18027   18030   18033
   18028   18027   18030   18032   18028   18027   18030   18031
   18029   18027   18030   18033   18029   18027   18030   18032
   18029   18027   18030   18031   18031   18030   18033   18036
   18031   18030   18033   18035   18031   18030   18033   18034
   18032   18030   18033   18036   18032   18030   18033   18035
   18032   18030   18033   18034   18037   18050   18053   18055
   18037   18050   18053   18054   18037   18050   18053   18060
   18038   18037   18042   18045   18038   18037   18042   18044
   18038   18037   18042   18043   18038   18037   18046   18049
   18038   18037   18046   18048   18038   18037   18046   18047
   18038   18037   18050   18052   18038   18037   18050   18051
   18038   18037   18050   18053   18042   18037   18038   18039
   18046   18037   18038   18039   18050   18037   18038   18039
   18042   18037   18038   18040   18046   18037   18038   18040
   18050   18037   18038   18040   18042   18037   18038   18041
   18046   18037   18038   18041   18050   18037   18038   18041
   18042   18037   18046   18049   18042   18037   18046   18048
   18042   18037   18046   18047   18042   18037   18050   18052
   18042   18037   18050   18051   18042   18037   18050   18053
   18046   18037   18042   18043   18050   18037   18042   18043
   18046   18037   18042   18044   18050   18037   18042   18044
   18046   18037   18042   18045   18050   18037   18042   18045
   18046   18037   18050   18052   18046   18037   18050   18051
   18046   18037   18050   18053   18050   18037   18046   18047
   18050   18037   18046   18048   18050   18037   18046   18049
   18050   18053   18060   18056   18051   18050   18053   18055
   18051   18050   18053   18054   18051   18050   18053   18060
   18052   18050   18053   18055   18052   18050   18053   18054
   18052   18050   18053   18060   18058   18056   18060   18053
   18057   18056   18060   18053   18059   18056   18060   18053
   18054   18053   18060   18056   18055   18053   18060   18056
   18056   18059   18061   18063   18056   18059   18061   18062
   18056   18059   18061   18066   18057   18056   18059   18061
   18058   18056   18059   18061   18059   18061   18066   18064
   18059   18061   18066   18067   18059   18061   18066   18068
   18060   18056   18059   18061   18116   18064   18066   18061
   18065   18064   18066   18061   18061   18066   18068   18070
   18061   18066   18068   18069   18061   18066   18068   18072
   18062   18061   18066   18064   18062   18061   18066   18067
   18062   18061   18066   18068   18063   18061   18066   18064
   18063   18061   18066   18067   18063   18061   18066   18068
   18064   18116   18118   18121   18064   18116   18118   18120
   18064   18116   18118   18119   18064   18066   18068   18070
   18064   18066   18068   18069   18064   18066   18068   18072
   18065   18064   18116   18117   18065   18064   18116   18118
   18065   18064   18066   18067   18065   18064   18066   18068
   18066   18064   18116   18117   18066   18064   18116   18118
   18066   18068   18070   18071   18066   18068   18072   18074
   18066   18068   18072   18073   18116   18064   18066   18067
   18067   18066   18068   18070   18067   18066   18068   18069
   18067   18066   18068   18072   18116   18064   18066   18068
   18068   18072   18074   18075   18068   18072   18074   18076
   18069   18068   18070   18071   18069   18068   18072   18074
   18069   18068   18072   18073   18070   18068   18072   18074
   18070   18068   18072   18073   18072   18068   18070   18071
   18072   18074   18076   18078   18072   18074   18076   18077
   18072   18074   18076   18079   18073   18072   18074   18075
   18073   18072   18074   18076   18074   18076   18079   18081
   18074   18076   18079   18080   18074   18076   18079   18082
   18075   18074   18076   18078   18075   18074   18076   18077
   18075   18074   18076   18079   18076   18079   18082   18084
   18076   18079   18082   18083   18076   18079   18082   18085
   18077   18076   18079   18081   18077   18076   18079   18080
   18077   18076   18079   18082   18078   18076   18079   18081
   18078   18076   18079   18080   18078   18076   18079   18082
   18079   18082   18085   18087   18079   18082   18085   18086
   18079   18082   18085   18088   18080   18079   18082   18084
   18080   18079   18082   18083   18080   18079   18082   18085
   18081   18079   18082   18084   18081   18079   18082   18083
   18081   18079   18082   18085   18082   18085   18088   18090
   18082   18085   18088   18089   18082   18085   18088   18091
   18083   18082   18085   18087   18083   18082   18085   18086
   18083   18082   18085   18088   18084   18082   18085   18087
   18084   18082   18085   18086   18084   18082   18085   18088
   18085   18088   18091   18093   18085   18088   18091   18092
   18085   18088   18091   18094   18086   18085   18088   18090
   18086   18085   18088   18089   18086   18085   18088   18091
   18087   18085   18088   18090   18087   18085   18088   18089
   18087   18085   18088   18091   18088   18091   18094   18096
   18088   18091   18094   18095   18088   18091   18094   18097
   18089   18088   18091   18093   18089   18088   18091   18092
   18089   18088   18091   18094   18090   18088   18091   18093
   18090   18088   18091   18092   18090   18088   18091   18094
   18091   18094   18097   18099   18091   18094   18097   18098
   18091   18094   18097   18100   18092   18091   18094   18096
   18092   18091   18094   18095   18092   18091   18094   18097
   18093   18091   18094   18096   18093   18091   18094   18095
   18093   18091   18094   18097   18094   18097   18100   18102
   18094   18097   18100   18101   18094   18097   18100   18103
   18095   18094   18097   18099   18095   18094   18097   18098
   18095   18094   18097   18100   18096   18094   18097   18099
   18096   18094   18097   18098   18096   18094   18097   18100
   18097   18100   18103   18105   18097   18100   18103   18104
   18097   18100   18103   18106   18098   18097   18100   18102
   18098   18097   18100   18101   18098   18097   18100   18103
   18099   18097   18100   18102   18099   18097   18100   18101
   18099   18097   18100   18103   18100   18103   18106   18108
   18100   18103   18106   18107   18100   18103   18106   18109
   18101   18100   18103   18105   18101   18100   18103   18104
   18101   18100   18103   18106   18102   18100   18103   18105
   18102   18100   18103   18104   18102   18100   18103   18106
   18103   18106   18109   18111   18103   18106   18109   18110
   18103   18106   18109   18112   18104   18103   18106   18108
   18104   18103   18106   18107   18104   18103   18106   18109
   18105   18103   18106   18108   18105   18103   18106   18107
   18105   18103   18106   18109   18106   18109   18112   18115
   18106   18109   18112   18114   18106   18109   18112   18113
   18107   18106   18109   18111   18107   18106   18109   18110
   18107   18106   18109   18112   18108   18106   18109   18111
   18108   18106   18109   18110   18108   18106   18109   18112
   18110   18109   18112   18115   18110   18109   18112   18114
   18110   18109   18112   18113   18111   18109   18112   18115
   18111   18109   18112   18114   18111   18109   18112   18113
   18116   18118   18121   18124   18116   18118   18121   18123
   18116   18118   18121   18122   18117   18116   18118   18121
   18117   18116   18118   18120   18117   18116   18118   18119
   18118   18121   18124   18127   18118   18121   18124   18126
   18118   18121   18124   18125   18119   18118   18121   18124
   18119   18118   18121   18123   18119   18118   18121   18122
   18120   18118   18121   18124   18120   18118   18121   18123
   18120   18118   18121   18122   18121   18124   18127   18130
   18121   18124   18127   18129   18121   18124   18127   18128
   18122   18121   18124   18127   18122   18121   18124   18126
   18122   18121   18124   18125   18123   18121   18124   18127
   18123   18121   18124   18126   18123   18121   18124   18125
   18124   18127   18130   18133   18124   18127   18130   18132
   18124   18127   18130   18131   18125   18124   18127   18130
   18125   18124   18127   18129   18125   18124   18127   18128
   18126   18124   18127   18130   18126   18124   18127   18129
   18126   18124   18127   18128   18127   18130   18133   18136
   18127   18130   18133   18135   18127   18130   18133   18134
   18128   18127   18130   18133   18128   18127   18130   18132
   18128   18127   18130   18131   18129   18127   18130   18133
   18129   18127   18130   18132   18129   18127   18130   18131
   18130   18133   18136   18139   18130   18133   18136   18138
   18130   18133   18136   18137   18131   18130   18133   18136
   18131   18130   18133   18135   18131   18130   18133   18134
   18132   18130   18133   18136   18132   18130   18133   18135
   18132   18130   18133   18134   18133   18136   18139   18142
   18133   18136   18139   18141   18133   18136   18139   18140
   18134   18133   18136   18139   18134   18133   18136   18138
   18134   18133   18136   18137   18135   18133   18136   18139
   18135   18133   18136   18138   18135   18133   18136   18137
   18136   18139   18142   18145   18136   18139   18142   18144
   18136   18139   18142   18143   18137   18136   18139   18142
   18137   18136   18139   18141   18137   18136   18139   18140
   18138   18136   18139   18142   18138   18136   18139   18141
   18138   18136   18139   18140   18139   18142   18145   18148
   18139   18142   18145   18147   18139   18142   18145   18146
   18140   18139   18142   18145   18140   18139   18142   18144
   18140   18139   18142   18143   18141   18139   18142   18145
   18141   18139   18142   18144   18141   18139   18142   18143
   18142   18145   18148   18151   18142   18145   18148   18150
   18142   18145   18148   18149   18143   18142   18145   18148
   18143   18142   18145   18147   18143   18142   18145   18146
   18144   18142   18145   18148   18144   18142   18145   18147
   18144   18142   18145   18146   18145   18148   18151   18154
   18145   18148   18151   18153   18145   18148   18151   18152
   18146   18145   18148   18151   18146   18145   18148   18150
   18146   18145   18148   18149   18147   18145   18148   18151
   18147   18145   18148   18150   18147   18145   18148   18149
   18148   18151   18154   18157   18148   18151   18154   18156
   18148   18151   18154   18155   18149   18148   18151   18154
   18149   18148   18151   18153   18149   18148   18151   18152
   18150   18148   18151   18154   18150   18148   18151   18153
   18150   18148   18151   18152   18151   18154   18157   18160
   18151   18154   18157   18159   18151   18154   18157   18158
   18152   18151   18154   18157   18152   18151   18154   18156
   18152   18151   18154   18155   18153   18151   18154   18157
   18153   18151   18154   18156   18153   18151   18154   18155
   18154   18157   18160   18163   18154   18157   18160   18162
   18154   18157   18160   18161   18155   18154   18157   18160
   18155   18154   18157   18159   18155   18154   18157   18158
   18156   18154   18157   18160   18156   18154   18157   18159
   18156   18154   18157   18158   18158   18157   18160   18163
   18158   18157   18160   18162   18158   18157   18160   18161
   18159   18157   18160   18163   18159   18157   18160   18162
   18159   18157   18160   18161   18164   18165   18180   18186
   18164   18165   18180   18182   18164   18165   18180   18181
   18165   18180   18186   18183   18165   18164   18176   18179
   18165   18164   18176   18178   18165   18164   18176   18177
   18165   18164   18172   18175   18165   18164   18172   18174
   18165   18164   18172   18173   18165   18164   18168   18171
   18165   18164   18168   18170   18165   18164   18168   18169
   18166   18165   18180   18186   18166   18165   18180   18182
   18166   18165   18180   18181   18176   18164   18165   18166
   18172   18164   18165   18166   18168   18164   18165   18166
   18167   18165   18180   18186   18167   18165   18180   18182
   18167   18165   18180   18181   18176   18164   18165   18167
   18172   18164   18165   18167   18168   18164   18165   18167
   18168   18164   18165   18180   18168   18164   18176   18179
   18168   18164   18176   18178   18168   18164   18176   18177
   18168   18164   18172   18175   18168   18164   18172   18174
   18168   18164   18172   18173   18176   18164   18168   18169
   18172   18164   18168   18169   18176   18164   18168   18170
   18172   18164   18168   18170   18176   18164   18168   18171
   18172   18164   18168   18171   18172   18164   18165   18180
   18172   18164   18176   18179   18172   18164   18176   18178
   18172   18164   18176   18177   18176   18164   18172   18173
   18176   18164   18172   18174   18176   18164   18172   18175
   18176   18164   18165   18180   18185   18183   18186   18180
   18184   18183   18186   18180   18187   18183   18186   18180
   18181   18180   18186   18183   18182   18180   18186   18183
   18183   18187   18188   18191   18183   18187   18188   18190
   18183   18187   18188   18189   18184   18183   18187   18188
   18185   18183   18187   18188   18186   18183   18187   18188
   18187   18188   18191   18193   18187   18188   18191   18199
   18187   18188   18191   18192   18188   18191   18193   18194
   18188   18191   18199   18202   18188   18191   18199   18201
   18188   18191   18199   18200   18189   18188   18191   18193
   18189   18188   18191   18199   18189   18188   18191   18192
   18190   18188   18191   18193   18190   18188   18191   18199
   18190   18188   18191   18192   18191   18193   18194   18195
   18191   18193   18194   18196   18191   18199   18202   18203
   18192   18191   18193   18194   18192   18191   18199   18202
   18192   18191   18199   18201   18192   18191   18199   18200
   18193   18194   18196   18208   18193   18194   18196   18198
   18193   18194   18196   18197   18193   18191   18199   18202
   18193   18191   18199   18201   18193   18191   18199   18200
   18194   18196   18208   18211   18194   18196   18208   18210
   18194   18196   18208   18209   18199   18191   18193   18194
   18195   18194   18196   18208   18195   18194   18196   18198
   18195   18194   18196   18197   18196   18208   18211   18214
   18196   18208   18211   18213   18196   18208   18211   18212
   18197   18196   18208   18211   18197   18196   18208   18210
   18197   18196   18208   18209   18198   18196   18208   18211
   18198   18196   18208   18210   18198   18196   18208   18209
   18199   18202   18203   18204   18199   18202   18203   18205
   18200   18199   18202   18203   18201   18199   18202   18203
   18202   18203   18205   18255   18202   18203   18205   18207
   18202   18203   18205   18206   18203   18205   18255   18258
   18203   18205   18255   18257   18203   18205   18255   18256
   18204   18203   18205   18255   18204   18203   18205   18207
   18204   18203   18205   18206   18205   18255   18258   18261
   18205   18255   18258   18260   18205   18255   18258   18259
   18206   18205   18255   18258   18206   18205   18255   18257
   18206   18205   18255   18256   18207   18205   18255   18258
   18207   18205   18255   18257   18207   18205   18255   18256
   18208   18211   18214   18217   18208   18211   18214   18216
   18208   18211   18214   18215   18209   18208   18211   18214
   18209   18208   18211   18213   18209   18208   18211   18212
   18210   18208   18211   18214   18210   18208   18211   18213
   18210   18208   18211   18212   18211   18214   18217   18220
   18211   18214   18217   18219   18211   18214   18217   18218
   18212   18211   18214   18217   18212   18211   18214   18216
   18212   18211   18214   18215   18213   18211   18214   18217
   18213   18211   18214   18216   18213   18211   18214   18215
   18214   18217   18220   18223   18214   18217   18220   18222
   18214   18217   18220   18221   18215   18214   18217   18220
   18215   18214   18217   18219   18215   18214   18217   18218
   18216   18214   18217   18220   18216   18214   18217   18219
   18216   18214   18217   18218   18217   18220   18223   18226
   18217   18220   18223   18225   18217   18220   18223   18224
   18218   18217   18220   18223   18218   18217   18220   18222
   18218   18217   18220   18221   18219   18217   18220   18223
   18219   18217   18220   18222   18219   18217   18220   18221
   18220   18223   18226   18228   18220   18223   18226   18227
   18221   18220   18223   18226   18221   18220   18223   18225
   18221   18220   18223   18224   18222   18220   18223   18226
   18222   18220   18223   18225   18222   18220   18223   18224
   18223   18226   18228   18230   18223   18226   18228   18229
   18224   18223   18226   18228   18224   18223   18226   18227
   18225   18223   18226   18228   18225   18223   18226   18227
   18226   18228   18230   18233   18226   18228   18230   18232
   18226   18228   18230   18231   18227   18226   18228   18230
   18227   18226   18228   18229   18228   18230   18233   18236
   18228   18230   18233   18235   18228   18230   18233   18234
   18229   18228   18230   18233   18229   18228   18230   18232
   18229   18228   18230   18231   18230   18233   18236   18239
   18230   18233   18236   18238   18230   18233   18236   18237
   18231   18230   18233   18236   18231   18230   18233   18235
   18231   18230   18233   18234   18232   18230   18233   18236
   18232   18230   18233   18235   18232   18230   18233   18234
   18233   18236   18239   18242   18233   18236   18239   18241
   18233   18236   18239   18240   18234   18233   18236   18239
   18234   18233   18236   18238   18234   18233   18236   18237
   18235   18233   18236   18239   18235   18233   18236   18238
   18235   18233   18236   18237   18236   18239   18242   18245
   18236   18239   18242   18244   18236   18239   18242   18243
   18237   18236   18239   18242   18237   18236   18239   18241
   18237   18236   18239   18240   18238   18236   18239   18242
   18238   18236   18239   18241   18238   18236   18239   18240
   18239   18242   18245   18248   18239   18242   18245   18247
   18239   18242   18245   18246   18240   18239   18242   18245
   18240   18239   18242   18244   18240   18239   18242   18243
   18241   18239   18242   18245   18241   18239   18242   18244
   18241   18239   18242   18243   18242   18245   18248   18251
   18242   18245   18248   18250   18242   18245   18248   18249
   18243   18242   18245   18248   18243   18242   18245   18247
   18243   18242   18245   18246   18244   18242   18245   18248
   18244   18242   18245   18247   18244   18242   18245   18246
   18245   18248   18251   18254   18245   18248   18251   18253
   18245   18248   18251   18252   18246   18245   18248   18251
   18246   18245   18248   18250   18246   18245   18248   18249
   18247   18245   18248   18251   18247   18245   18248   18250
   18247   18245   18248   18249   18249   18248   18251   18254
   18249   18248   18251   18253   18249   18248   18251   18252
   18250   18248   18251   18254   18250   18248   18251   18253
   18250   18248   18251   18252   18255   18258   18261   18264
   18255   18258   18261   18263   18255   18258   18261   18262
   18256   18255   18258   18261   18256   18255   18258   18260
   18256   18255   18258   18259   18257   18255   18258   18261
   18257   18255   18258   18260   18257   18255   18258   18259
   18258   18261   18264   18267   18258   18261   18264   18266
   18258   18261   18264   18265   18259   18258   18261   18264
   18259   18258   18261   18263   18259   18258   18261   18262
   18260   18258   18261   18264   18260   18258   18261   18263
   18260   18258   18261   18262   18261   18264   18267   18270
   18261   18264   18267   18269   18261   18264   18267   18268
   18262   18261   18264   18267   18262   18261   18264   18266
   18262   18261   18264   18265   18263   18261   18264   18267
   18263   18261   18264   18266   18263   18261   18264   18265
   18264   18267   18270   18273   18264   18267   18270   18272
   18264   18267   18270   18271   18265   18264   18267   18270
   18265   18264   18267   18269   18265   18264   18267   18268
   18266   18264   18267   18270   18266   18264   18267   18269
   18266   18264   18267   18268   18267   18270   18273   18276
   18267   18270   18273   18275   18267   18270   18273   18274
   18268   18267   18270   18273   18268   18267   18270   18272
   18268   18267   18270   18271   18269   18267   18270   18273
   18269   18267   18270   18272   18269   18267   18270   18271
   18270   18273   18276   18279   18270   18273   18276   18278
   18270   18273   18276   18277   18271   18270   18273   18276
   18271   18270   18273   18275   18271   18270   18273   18274
   18272   18270   18273   18276   18272   18270   18273   18275
   18272   18270   18273   18274   18273   18276   18279   18282
   18273   18276   18279   18281   18273   18276   18279   18280
   18274   18273   18276   18279   18274   18273   18276   18278
   18274   18273   18276   18277   18275   18273   18276   18279
   18275   18273   18276   18278   18275   18273   18276   18277
   18276   18279   18282   18285   18276   18279   18282   18284
   18276   18279   18282   18283   18277   18276   18279   18282
   18277   18276   18279   18281   18277   18276   18279   18280
   18278   18276   18279   18282   18278   18276   18279   18281
   18278   18276   18279   18280   18279   18282   18285   18288
   18279   18282   18285   18287   18279   18282   18285   18286
   18280   18279   18282   18285   18280   18279   18282   18284
   18280   18279   18282   18283   18281   18279   18282   18285
   18281   18279   18282   18284   18281   18279   18282   18283
   18282   18285   18288   18291   18282   18285   18288   18290
   18282   18285   18288   18289   18283   18282   18285   18288
   18283   18282   18285   18287   18283   18282   18285   18286
   18284   18282   18285   18288   18284   18282   18285   18287
   18284   18282   18285   18286   18285   18288   18291   18294
   18285   18288   18291   18293   18285   18288   18291   18292
   18286   18285   18288   18291   18286   18285   18288   18290
   18286   18285   18288   18289   18287   18285   18288   18291
   18287   18285   18288   18290   18287   18285   18288   18289
   18288   18291   18294   18297   18288   18291   18294   18296
   18288   18291   18294   18295   18289   18288   18291   18294
   18289   18288   18291   18293   18289   18288   18291   18292
   18290   18288   18291   18294   18290   18288   18291   18293
   18290   18288   18291   18292   18292   18291   18294   18297
   18292   18291   18294   18296   18292   18291   18294   18295
   18293   18291   18294   18297   18293   18291   18294   18296
   18293   18291   18294   18295   18298   18302   18307   18313
   18298   18302   18307   18309   18298   18302   18307   18308
   18298   18302   18304   18305   18298   18302   18304   18306
   18299   18298   18302   18307   18299   18298   18302   18303
   18299   18298   18302   18304   18300   18298   18302   18307
   18300   18298   18302   18303   18300   18298   18302   18304
   18301   18298   18302   18307   18301   18298   18302   18303
   18301   18298   18302   18304   18302   18307   18313   18310
   18303   18302   18307   18313   18303   18302   18307   18309
   18303   18302   18307   18308   18303   18302   18304   18305
   18303   18302   18304   18306   18304   18302   18307   18313
   18304   18302   18307   18309   18304   18302   18307   18308
   18307   18302   18304   18305   18307   18302   18304   18306
   18312   18310   18313   18307   18311   18310   18313   18307
   18314   18310   18313   18307   18308   18307   18313   18310
   18309   18307   18313   18310   18310   18314   18315   18318
   18310   18314   18315   18317   18310   18314   18315   18316
   18311   18310   18314   18315   18312   18310   18314   18315
   18313   18310   18314   18315   18314   18315   18318   18320
   18314   18315   18318   18326   18314   18315   18318   18319
   18315   18318   18320   18321   18315   18318   18326   18329
   18315   18318   18326   18328   18315   18318   18326   18327
   18316   18315   18318   18320   18316   18315   18318   18326
   18316   18315   18318   18319   18317   18315   18318   18320
   18317   18315   18318   18326   18317   18315   18318   18319
   18318   18320   18321   18322   18318   18320   18321   18323
   18318   18326   18329   18330   18319   18318   18320   18321
   18319   18318   18326   18329   18319   18318   18326   18328
   18319   18318   18326   18327   18320   18321   18323   18335
   18320   18321   18323   18325   18320   18321   18323   18324
   18320   18318   18326   18329   18320   18318   18326   18328
   18320   18318   18326   18327   18321   18323   18335   18338
   18321   18323   18335   18337   18321   18323   18335   18336
   18326   18318   18320   18321   18322   18321   18323   18335
   18322   18321   18323   18325   18322   18321   18323   18324
   18323   18335   18338   18341   18323   18335   18338   18340
   18323   18335   18338   18339   18324   18323   18335   18338
   18324   18323   18335   18337   18324   18323   18335   18336
   18325   18323   18335   18338   18325   18323   18335   18337
   18325   18323   18335   18336   18326   18329   18330   18331
   18326   18329   18330   18332   18327   18326   18329   18330
   18328   18326   18329   18330   18329   18330   18332   18382
   18329   18330   18332   18334   18329   18330   18332   18333
   18330   18332   18382   18385   18330   18332   18382   18384
   18330   18332   18382   18383   18331   18330   18332   18382
   18331   18330   18332   18334   18331   18330   18332   18333
   18332   18382   18385   18388   18332   18382   18385   18387
   18332   18382   18385   18386   18333   18332   18382   18385
   18333   18332   18382   18384   18333   18332   18382   18383
   18334   18332   18382   18385   18334   18332   18382   18384
   18334   18332   18382   18383   18335   18338   18341   18344
   18335   18338   18341   18343   18335   18338   18341   18342
   18336   18335   18338   18341   18336   18335   18338   18340
   18336   18335   18338   18339   18337   18335   18338   18341
   18337   18335   18338   18340   18337   18335   18338   18339
   18338   18341   18344   18347   18338   18341   18344   18346
   18338   18341   18344   18345   18339   18338   18341   18344
   18339   18338   18341   18343   18339   18338   18341   18342
   18340   18338   18341   18344   18340   18338   18341   18343
   18340   18338   18341   18342   18341   18344   18347   18350
   18341   18344   18347   18349   18341   18344   18347   18348
   18342   18341   18344   18347   18342   18341   18344   18346
   18342   18341   18344   18345   18343   18341   18344   18347
   18343   18341   18344   18346   18343   18341   18344   18345
   18344   18347   18350   18353   18344   18347   18350   18352
   18344   18347   18350   18351   18345   18344   18347   18350
   18345   18344   18347   18349   18345   18344   18347   18348
   18346   18344   18347   18350   18346   18344   18347   18349
   18346   18344   18347   18348   18347   18350   18353   18355
   18347   18350   18353   18354   18348   18347   18350   18353
   18348   18347   18350   18352   18348   18347   18350   18351
   18349   18347   18350   18353   18349   18347   18350   18352
   18349   18347   18350   18351   18350   18353   18355   18357
   18350   18353   18355   18356   18351   18350   18353   18355
   18351   18350   18353   18354   18352   18350   18353   18355
   18352   18350   18353   18354   18353   18355   18357   18360
   18353   18355   18357   18359   18353   18355   18357   18358
   18354   18353   18355   18357   18354   18353   18355   18356
   18355   18357   18360   18363   18355   18357   18360   18362
   18355   18357   18360   18361   18356   18355   18357   18360
   18356   18355   18357   18359   18356   18355   18357   18358
   18357   18360   18363   18366   18357   18360   18363   18365
   18357   18360   18363   18364   18358   18357   18360   18363
   18358   18357   18360   18362   18358   18357   18360   18361
   18359   18357   18360   18363   18359   18357   18360   18362
   18359   18357   18360   18361   18360   18363   18366   18369
   18360   18363   18366   18368   18360   18363   18366   18367
   18361   18360   18363   18366   18361   18360   18363   18365
   18361   18360   18363   18364   18362   18360   18363   18366
   18362   18360   18363   18365   18362   18360   18363   18364
   18363   18366   18369   18372   18363   18366   18369   18371
   18363   18366   18369   18370   18364   18363   18366   18369
   18364   18363   18366   18368   18364   18363   18366   18367
   18365   18363   18366   18369   18365   18363   18366   18368
   18365   18363   18366   18367   18366   18369   18372   18375
   18366   18369   18372   18374   18366   18369   18372   18373
   18367   18366   18369   18372   18367   18366   18369   18371
   18367   18366   18369   18370   18368   18366   18369   18372
   18368   18366   18369   18371   18368   18366   18369   18370
   18369   18372   18375   18378   18369   18372   18375   18377
   18369   18372   18375   18376   18370   18369   18372   18375
   18370   18369   18372   18374   18370   18369   18372   18373
   18371   18369   18372   18375   18371   18369   18372   18374
   18371   18369   18372   18373   18372   18375   18378   18381
   18372   18375   18378   18380   18372   18375   18378   18379
   18373   18372   18375   18378   18373   18372   18375   18377
   18373   18372   18375   18376   18374   18372   18375   18378
   18374   18372   18375   18377   18374   18372   18375   18376
   18376   18375   18378   18381   18376   18375   18378   18380
   18376   18375   18378   18379   18377   18375   18378   18381
   18377   18375   18378   18380   18377   18375   18378   18379
   18382   18385   18388   18391   18382   18385   18388   18390
   18382   18385   18388   18389   18383   18382   18385   18388
   18383   18382   18385   18387   18383   18382   18385   18386
   18384   18382   18385   18388   18384   18382   18385   18387
   18384   18382   18385   18386   18385   18388   18391   18394
   18385   18388   18391   18393   18385   18388   18391   18392
   18386   18385   18388   18391   18386   18385   18388   18390
   18386   18385   18388   18389   18387   18385   18388   18391
   18387   18385   18388   18390   18387   18385   18388   18389
   18388   18391   18394   18397   18388   18391   18394   18396
   18388   18391   18394   18395   18389   18388   18391   18394
   18389   18388   18391   18393   18389   18388   18391   18392
   18390   18388   18391   18394   18390   18388   18391   18393
   18390   18388   18391   18392   18391   18394   18397   18400
   18391   18394   18397   18399   18391   18394   18397   18398
   18392   18391   18394   18397   18392   18391   18394   18396
   18392   18391   18394   18395   18393   18391   18394   18397
   18393   18391   18394   18396   18393   18391   18394   18395
   18394   18397   18400   18403   18394   18397   18400   18402
   18394   18397   18400   18401   18395   18394   18397   18400
   18395   18394   18397   18399   18395   18394   18397   18398
   18396   18394   18397   18400   18396   18394   18397   18399
   18396   18394   18397   18398   18397   18400   18403   18406
   18397   18400   18403   18405   18397   18400   18403   18404
   18398   18397   18400   18403   18398   18397   18400   18402
   18398   18397   18400   18401   18399   18397   18400   18403
   18399   18397   18400   18402   18399   18397   18400   18401
   18400   18403   18406   18409   18400   18403   18406   18408
   18400   18403   18406   18407   18401   18400   18403   18406
   18401   18400   18403   18405   18401   18400   18403   18404
   18402   18400   18403   18406   18402   18400   18403   18405
   18402   18400   18403   18404   18403   18406   18409   18412
   18403   18406   18409   18411   18403   18406   18409   18410
   18404   18403   18406   18409   18404   18403   18406   18408
   18404   18403   18406   18407   18405   18403   18406   18409
   18405   18403   18406   18408   18405   18403   18406   18407
   18406   18409   18412   18415   18406   18409   18412   18414
   18406   18409   18412   18413   18407   18406   18409   18412
   18407   18406   18409   18411   18407   18406   18409   18410
   18408   18406   18409   18412   18408   18406   18409   18411
   18408   18406   18409   18410   18409   18412   18415   18418
   18409   18412   18415   18417   18409   18412   18415   18416
   18410   18409   18412   18415   18410   18409   18412   18414
   18410   18409   18412   18413   18411   18409   18412   18415
   18411   18409   18412   18414   18411   18409   18412   18413
   18412   18415   18418   18421   18412   18415   18418   18420
   18412   18415   18418   18419   18413   18412   18415   18418
   18413   18412   18415   18417   18413   18412   18415   18416
   18414   18412   18415   18418   18414   18412   18415   18417
   18414   18412   18415   18416   18415   18418   18421   18424
   18415   18418   18421   18423   18415   18418   18421   18422
   18416   18415   18418   18421   18416   18415   18418   18420
   18416   18415   18418   18419   18417   18415   18418   18421
   18417   18415   18418   18420   18417   18415   18418   18419
   18419   18418   18421   18424   18419   18418   18421   18423
   18419   18418   18421   18422   18420   18418   18421   18424
   18420   18418   18421   18423   18420   18418   18421   18422
   18425   18438   18441   18443   18425   18438   18441   18442
   18425   18438   18441   18448   18426   18425   18430   18433
   18426   18425   18430   18432   18426   18425   18430   18431
   18426   18425   18434   18437   18426   18425   18434   18436
   18426   18425   18434   18435   18426   18425   18438   18440
   18426   18425   18438   18439   18426   18425   18438   18441
   18430   18425   18426   18427   18434   18425   18426   18427
   18438   18425   18426   18427   18430   18425   18426   18428
   18434   18425   18426   18428   18438   18425   18426   18428
   18430   18425   18426   18429   18434   18425   18426   18429
   18438   18425   18426   18429   18430   18425   18434   18437
   18430   18425   18434   18436   18430   18425   18434   18435
   18430   18425   18438   18440   18430   18425   18438   18439
   18430   18425   18438   18441   18434   18425   18430   18431
   18438   18425   18430   18431   18434   18425   18430   18432
   18438   18425   18430   18432   18434   18425   18430   18433
   18438   18425   18430   18433   18434   18425   18438   18440
   18434   18425   18438   18439   18434   18425   18438   18441
   18438   18425   18434   18435   18438   18425   18434   18436
   18438   18425   18434   18437   18438   18441   18448   18444
   18439   18438   18441   18443   18439   18438   18441   18442
   18439   18438   18441   18448   18440   18438   18441   18443
   18440   18438   18441   18442   18440   18438   18441   18448
   18446   18444   18448   18441   18445   18444   18448   18441
   18447   18444   18448   18441   18442   18441   18448   18444
   18443   18441   18448   18444   18444   18447   18449   18451
   18444   18447   18449   18450   18444   18447   18449   18454
   18445   18444   18447   18449   18446   18444   18447   18449
   18447   18449   18454   18452   18447   18449   18454   18455
   18447   18449   18454   18456   18448   18444   18447   18449
   18504   18452   18454   18449   18453   18452   18454   18449
   18449   18454   18456   18458   18449   18454   18456   18457
   18449   18454   18456   18460   18450   18449   18454   18452
   18450   18449   18454   18455   18450   18449   18454   18456
   18451   18449   18454   18452   18451   18449   18454   18455
   18451   18449   18454   18456   18452   18504   18506   18509
   18452   18504   18506   18508   18452   18504   18506   18507
   18452   18454   18456   18458   18452   18454   18456   18457
   18452   18454   18456   18460   18453   18452   18504   18505
   18453   18452   18504   18506   18453   18452   18454   18455
   18453   18452   18454   18456   18454   18452   18504   18505
   18454   18452   18504   18506   18454   18456   18458   18459
   18454   18456   18460   18462   18454   18456   18460   18461
   18504   18452   18454   18455   18455   18454   18456   18458
   18455   18454   18456   18457   18455   18454   18456   18460
   18504   18452   18454   18456   18456   18460   18462   18463
   18456   18460   18462   18464   18457   18456   18458   18459
   18457   18456   18460   18462   18457   18456   18460   18461
   18458   18456   18460   18462   18458   18456   18460   18461
   18460   18456   18458   18459   18460   18462   18464   18466
   18460   18462   18464   18465   18460   18462   18464   18467
   18461   18460   18462   18463   18461   18460   18462   18464
   18462   18464   18467   18469   18462   18464   18467   18468
   18462   18464   18467   18470   18463   18462   18464   18466
   18463   18462   18464   18465   18463   18462   18464   18467
   18464   18467   18470   18472   18464   18467   18470   18471
   18464   18467   18470   18473   18465   18464   18467   18469
   18465   18464   18467   18468   18465   18464   18467   18470
   18466   18464   18467   18469   18466   18464   18467   18468
   18466   18464   18467   18470   18467   18470   18473   18475
   18467   18470   18473   18474   18467   18470   18473   18476
   18468   18467   18470   18472   18468   18467   18470   18471
   18468   18467   18470   18473   18469   18467   18470   18472
   18469   18467   18470   18471   18469   18467   18470   18473
   18470   18473   18476   18478   18470   18473   18476   18477
   18470   18473   18476   18479   18471   18470   18473   18475
   18471   18470   18473   18474   18471   18470   18473   18476
   18472   18470   18473   18475   18472   18470   18473   18474
   18472   18470   18473   18476   18473   18476   18479   18481
   18473   18476   18479   18480   18473   18476   18479   18482
   18474   18473   18476   18478   18474   18473   18476   18477
   18474   18473   18476   18479   18475   18473   18476   18478
   18475   18473   18476   18477   18475   18473   18476   18479
   18476   18479   18482   18484   18476   18479   18482   18483
   18476   18479   18482   18485   18477   18476   18479   18481
   18477   18476   18479   18480   18477   18476   18479   18482
   18478   18476   18479   18481   18478   18476   18479   18480
   18478   18476   18479   18482   18479   18482   18485   18487
   18479   18482   18485   18486   18479   18482   18485   18488
   18480   18479   18482   18484   18480   18479   18482   18483
   18480   18479   18482   18485   18481   18479   18482   18484
   18481   18479   18482   18483   18481   18479   18482   18485
   18482   18485   18488   18490   18482   18485   18488   18489
   18482   18485   18488   18491   18483   18482   18485   18487
   18483   18482   18485   18486   18483   18482   18485   18488
   18484   18482   18485   18487   18484   18482   18485   18486
   18484   18482   18485   18488   18485   18488   18491   18493
   18485   18488   18491   18492   18485   18488   18491   18494
   18486   18485   18488   18490   18486   18485   18488   18489
   18486   18485   18488   18491   18487   18485   18488   18490
   18487   18485   18488   18489   18487   18485   18488   18491
   18488   18491   18494   18496   18488   18491   18494   18495
   18488   18491   18494   18497   18489   18488   18491   18493
   18489   18488   18491   18492   18489   18488   18491   18494
   18490   18488   18491   18493   18490   18488   18491   18492
   18490   18488   18491   18494   18491   18494   18497   18499
   18491   18494   18497   18498   18491   18494   18497   18500
   18492   18491   18494   18496   18492   18491   18494   18495
   18492   18491   18494   18497   18493   18491   18494   18496
   18493   18491   18494   18495   18493   18491   18494   18497
   18494   18497   18500   18503   18494   18497   18500   18502
   18494   18497   18500   18501   18495   18494   18497   18499
   18495   18494   18497   18498   18495   18494   18497   18500
   18496   18494   18497   18499   18496   18494   18497   18498
   18496   18494   18497   18500   18498   18497   18500   18503
   18498   18497   18500   18502   18498   18497   18500   18501
   18499   18497   18500   18503   18499   18497   18500   18502
   18499   18497   18500   18501   18504   18506   18509   18512
   18504   18506   18509   18511   18504   18506   18509   18510
   18505   18504   18506   18509   18505   18504   18506   18508
   18505   18504   18506   18507   18506   18509   18512   18515
   18506   18509   18512   18514   18506   18509   18512   18513
   18507   18506   18509   18512   18507   18506   18509   18511
   18507   18506   18509   18510   18508   18506   18509   18512
   18508   18506   18509   18511   18508   18506   18509   18510
   18509   18512   18515   18518   18509   18512   18515   18517
   18509   18512   18515   18516   18510   18509   18512   18515
   18510   18509   18512   18514   18510   18509   18512   18513
   18511   18509   18512   18515   18511   18509   18512   18514
   18511   18509   18512   18513   18512   18515   18518   18521
   18512   18515   18518   18520   18512   18515   18518   18519
   18513   18512   18515   18518   18513   18512   18515   18517
   18513   18512   18515   18516   18514   18512   18515   18518
   18514   18512   18515   18517   18514   18512   18515   18516
   18515   18518   18521   18524   18515   18518   18521   18523
   18515   18518   18521   18522   18516   18515   18518   18521
   18516   18515   18518   18520   18516   18515   18518   18519
   18517   18515   18518   18521   18517   18515   18518   18520
   18517   18515   18518   18519   18518   18521   18524   18527
   18518   18521   18524   18526   18518   18521   18524   18525
   18519   18518   18521   18524   18519   18518   18521   18523
   18519   18518   18521   18522   18520   18518   18521   18524
   18520   18518   18521   18523   18520   18518   18521   18522
   18521   18524   18527   18530   18521   18524   18527   18529
   18521   18524   18527   18528   18522   18521   18524   18527
   18522   18521   18524   18526   18522   18521   18524   18525
   18523   18521   18524   18527   18523   18521   18524   18526
   18523   18521   18524   18525   18524   18527   18530   18533
   18524   18527   18530   18532   18524   18527   18530   18531
   18525   18524   18527   18530   18525   18524   18527   18529
   18525   18524   18527   18528   18526   18524   18527   18530
   18526   18524   18527   18529   18526   18524   18527   18528
   18527   18530   18533   18536   18527   18530   18533   18535
   18527   18530   18533   18534   18528   18527   18530   18533
   18528   18527   18530   18532   18528   18527   18530   18531
   18529   18527   18530   18533   18529   18527   18530   18532
   18529   18527   18530   18531   18530   18533   18536   18539
   18530   18533   18536   18538   18530   18533   18536   18537
   18531   18530   18533   18536   18531   18530   18533   18535
   18531   18530   18533   18534   18532   18530   18533   18536
   18532   18530   18533   18535   18532   18530   18533   18534
   18533   18536   18539   18542   18533   18536   18539   18541
   18533   18536   18539   18540   18534   18533   18536   18539
   18534   18533   18536   18538   18534   18533   18536   18537
   18535   18533   18536   18539   18535   18533   18536   18538
   18535   18533   18536   18537   18536   18539   18542   18545
   18536   18539   18542   18544   18536   18539   18542   18543
   18537   18536   18539   18542   18537   18536   18539   18541
   18537   18536   18539   18540   18538   18536   18539   18542
   18538   18536   18539   18541   18538   18536   18539   18540
   18539   18542   18545   18548   18539   18542   18545   18547
   18539   18542   18545   18546   18540   18539   18542   18545
   18540   18539   18542   18544   18540   18539   18542   18543
   18541   18539   18542   18545   18541   18539   18542   18544
   18541   18539   18542   18543   18542   18545   18548   18551
   18542   18545   18548   18550   18542   18545   18548   18549
   18543   18542   18545   18548   18543   18542   18545   18547
   18543   18542   18545   18546   18544   18542   18545   18548
   18544   18542   18545   18547   18544   18542   18545   18546
   18546   18545   18548   18551   18546   18545   18548   18550
   18546   18545   18548   18549   18547   18545   18548   18551
   18547   18545   18548   18550   18547   18545   18548   18549
   18552   18553   18568   18574   18552   18553   18568   18570
   18552   18553   18568   18569   18553   18568   18574   18571
   18553   18552   18564   18567   18553   18552   18564   18566
   18553   18552   18564   18565   18553   18552   18560   18563
   18553   18552   18560   18562   18553   18552   18560   18561
   18553   18552   18556   18559   18553   18552   18556   18558
   18553   18552   18556   18557   18554   18553   18568   18574
   18554   18553   18568   18570   18554   18553   18568   18569
   18564   18552   18553   18554   18560   18552   18553   18554
   18556   18552   18553   18554   18555   18553   18568   18574
   18555   18553   18568   18570   18555   18553   18568   18569
   18564   18552   18553   18555   18560   18552   18553   18555
   18556   18552   18553   18555   18556   18552   18553   18568
   18556   18552   18564   18567   18556   18552   18564   18566
   18556   18552   18564   18565   18556   18552   18560   18563
   18556   18552   18560   18562   18556   18552   18560   18561
   18564   18552   18556   18557   18560   18552   18556   18557
   18564   18552   18556   18558   18560   18552   18556   18558
   18564   18552   18556   18559   18560   18552   18556   18559
   18560   18552   18553   18568   18560   18552   18564   18567
   18560   18552   18564   18566   18560   18552   18564   18565
   18564   18552   18560   18561   18564   18552   18560   18562
   18564   18552   18560   18563   18564   18552   18553   18568
   18573   18571   18574   18568   18572   18571   18574   18568
   18575   18571   18574   18568   18569   18568   18574   18571
   18570   18568   18574   18571   18571   18575   18576   18579
   18571   18575   18576   18578   18571   18575   18576   18577
   18572   18571   18575   18576   18573   18571   18575   18576
   18574   18571   18575   18576   18575   18576   18579   18581
   18575   18576   18579   18587   18575   18576   18579   18580
   18576   18579   18581   18582   18576   18579   18587   18590
   18576   18579   18587   18589   18576   18579   18587   18588
   18577   18576   18579   18581   18577   18576   18579   18587
   18577   18576   18579   18580   18578   18576   18579   18581
   18578   18576   18579   18587   18578   18576   18579   18580
   18579   18581   18582   18583   18579   18581   18582   18584
   18579   18587   18590   18591   18580   18579   18581   18582
   18580   18579   18587   18590   18580   18579   18587   18589
   18580   18579   18587   18588   18581   18582   18584   18596
   18581   18582   18584   18586   18581   18582   18584   18585
   18581   18579   18587   18590   18581   18579   18587   18589
   18581   18579   18587   18588   18582   18584   18596   18599
   18582   18584   18596   18598   18582   18584   18596   18597
   18587   18579   18581   18582   18583   18582   18584   18596
   18583   18582   18584   18586   18583   18582   18584   18585
   18584   18596   18599   18602   18584   18596   18599   18601
   18584   18596   18599   18600   18585   18584   18596   18599
   18585   18584   18596   18598   18585   18584   18596   18597
   18586   18584   18596   18599   18586   18584   18596   18598
   18586   18584   18596   18597   18587   18590   18591   18592
   18587   18590   18591   18593   18588   18587   18590   18591
   18589   18587   18590   18591   18590   18591   18593   18643
   18590   18591   18593   18595   18590   18591   18593   18594
   18591   18593   18643   18646   18591   18593   18643   18645
   18591   18593   18643   18644   18592   18591   18593   18643
   18592   18591   18593   18595   18592   18591   18593   18594
   18593   18643   18646   18649   18593   18643   18646   18648
   18593   18643   18646   18647   18594   18593   18643   18646
   18594   18593   18643   18645   18594   18593   18643   18644
   18595   18593   18643   18646   18595   18593   18643   18645
   18595   18593   18643   18644   18596   18599   18602   18605
   18596   18599   18602   18604   18596   18599   18602   18603
   18597   18596   18599   18602   18597   18596   18599   18601
   18597   18596   18599   18600   18598   18596   18599   18602
   18598   18596   18599   18601   18598   18596   18599   18600
   18599   18602   18605   18608   18599   18602   18605   18607
   18599   18602   18605   18606   18600   18599   18602   18605
   18600   18599   18602   18604   18600   18599   18602   18603
   18601   18599   18602   18605   18601   18599   18602   18604
   18601   18599   18602   18603   18602   18605   18608   18611
   18602   18605   18608   18610   18602   18605   18608   18609
   18603   18602   18605   18608   18603   18602   18605   18607
   18603   18602   18605   18606   18604   18602   18605   18608
   18604   18602   18605   18607   18604   18602   18605   18606
   18605   18608   18611   18614   18605   18608   18611   18613
   18605   18608   18611   18612   18606   18605   18608   18611
   18606   18605   18608   18610   18606   18605   18608   18609
   18607   18605   18608   18611   18607   18605   18608   18610
   18607   18605   18608   18609   18608   18611   18614   18616
   18608   18611   18614   18615   18609   18608   18611   18614
   18609   18608   18611   18613   18609   18608   18611   18612
   18610   18608   18611   18614   18610   18608   18611   18613
   18610   18608   18611   18612   18611   18614   18616   18618
   18611   18614   18616   18617   18612   18611   18614   18616
   18612   18611   18614   18615   18613   18611   18614   18616
   18613   18611   18614   18615   18614   18616   18618   18621
   18614   18616   18618   18620   18614   18616   18618   18619
   18615   18614   18616   18618   18615   18614   18616   18617
   18616   18618   18621   18624   18616   18618   18621   18623
   18616   18618   18621   18622   18617   18616   18618   18621
   18617   18616   18618   18620   18617   18616   18618   18619
   18618   18621   18624   18627   18618   18621   18624   18626
   18618   18621   18624   18625   18619   18618   18621   18624
   18619   18618   18621   18623   18619   18618   18621   18622
   18620   18618   18621   18624   18620   18618   18621   18623
   18620   18618   18621   18622   18621   18624   18627   18630
   18621   18624   18627   18629   18621   18624   18627   18628
   18622   18621   18624   18627   18622   18621   18624   18626
   18622   18621   18624   18625   18623   18621   18624   18627
   18623   18621   18624   18626   18623   18621   18624   18625
   18624   18627   18630   18633   18624   18627   18630   18632
   18624   18627   18630   18631   18625   18624   18627   18630
   18625   18624   18627   18629   18625   18624   18627   18628
   18626   18624   18627   18630   18626   18624   18627   18629
   18626   18624   18627   18628   18627   18630   18633   18636
   18627   18630   18633   18635   18627   18630   18633   18634
   18628   18627   18630   18633   18628   18627   18630   18632
   18628   18627   18630   18631   18629   18627   18630   18633
   18629   18627   18630   18632   18629   18627   18630   18631
   18630   18633   18636   18639   18630   18633   18636   18638
   18630   18633   18636   18637   18631   18630   18633   18636
   18631   18630   18633   18635   18631   18630   18633   18634
   18632   18630   18633   18636   18632   18630   18633   18635
   18632   18630   18633   18634   18633   18636   18639   18642
   18633   18636   18639   18641   18633   18636   18639   18640
   18634   18633   18636   18639   18634   18633   18636   18638
   18634   18633   18636   18637   18635   18633   18636   18639
   18635   18633   18636   18638   18635   18633   18636   18637
   18637   18636   18639   18642   18637   18636   18639   18641
   18637   18636   18639   18640   18638   18636   18639   18642
   18638   18636   18639   18641   18638   18636   18639   18640
   18643   18646   18649   18652   18643   18646   18649   18651
   18643   18646   18649   18650   18644   18643   18646   18649
   18644   18643   18646   18648   18644   18643   18646   18647
   18645   18643   18646   18649   18645   18643   18646   18648
   18645   18643   18646   18647   18646   18649   18652   18655
   18646   18649   18652   18654   18646   18649   18652   18653
   18647   18646   18649   18652   18647   18646   18649   18651
   18647   18646   18649   18650   18648   18646   18649   18652
   18648   18646   18649   18651   18648   18646   18649   18650
   18649   18652   18655   18658   18649   18652   18655   18657
   18649   18652   18655   18656   18650   18649   18652   18655
   18650   18649   18652   18654   18650   18649   18652   18653
   18651   18649   18652   18655   18651   18649   18652   18654
   18651   18649   18652   18653   18652   18655   18658   18661
   18652   18655   18658   18660   18652   18655   18658   18659
   18653   18652   18655   18658   18653   18652   18655   18657
   18653   18652   18655   18656   18654   18652   18655   18658
   18654   18652   18655   18657   18654   18652   18655   18656
   18655   18658   18661   18664   18655   18658   18661   18663
   18655   18658   18661   18662   18656   18655   18658   18661
   18656   18655   18658   18660   18656   18655   18658   18659
   18657   18655   18658   18661   18657   18655   18658   18660
   18657   18655   18658   18659   18658   18661   18664   18667
   18658   18661   18664   18666   18658   18661   18664   18665
   18659   18658   18661   18664   18659   18658   18661   18663
   18659   18658   18661   18662   18660   18658   18661   18664
   18660   18658   18661   18663   18660   18658   18661   18662
   18661   18664   18667   18670   18661   18664   18667   18669
   18661   18664   18667   18668   18662   18661   18664   18667
   18662   18661   18664   18666   18662   18661   18664   18665
   18663   18661   18664   18667   18663   18661   18664   18666
   18663   18661   18664   18665   18664   18667   18670   18673
   18664   18667   18670   18672   18664   18667   18670   18671
   18665   18664   18667   18670   18665   18664   18667   18669
   18665   18664   18667   18668   18666   18664   18667   18670
   18666   18664   18667   18669   18666   18664   18667   18668
   18667   18670   18673   18676   18667   18670   18673   18675
   18667   18670   18673   18674   18668   18667   18670   18673
   18668   18667   18670   18672   18668   18667   18670   18671
   18669   18667   18670   18673   18669   18667   18670   18672
   18669   18667   18670   18671   18670   18673   18676   18679
   18670   18673   18676   18678   18670   18673   18676   18677
   18671   18670   18673   18676   18671   18670   18673   18675
   18671   18670   18673   18674   18672   18670   18673   18676
   18672   18670   18673   18675   18672   18670   18673   18674
   18673   18676   18679   18682   18673   18676   18679   18681
   18673   18676   18679   18680   18674   18673   18676   18679
   18674   18673   18676   18678   18674   18673   18676   18677
   18675   18673   18676   18679   18675   18673   18676   18678
   18675   18673   18676   18677   18676   18679   18682   18685
   18676   18679   18682   18684   18676   18679   18682   18683
   18677   18676   18679   18682   18677   18676   18679   18681
   18677   18676   18679   18680   18678   18676   18679   18682
   18678   18676   18679   18681   18678   18676   18679   18680
   18680   18679   18682   18685   18680   18679   18682   18684
   18680   18679   18682   18683   18681   18679   18682   18685
   18681   18679   18682   18684   18681   18679   18682   18683
   18686   18699   18702   18704   18686   18699   18702   18703
   18686   18699   18702   18709   18687   18686   18691   18694
   18687   18686   18691   18693   18687   18686   18691   18692
   18687   18686   18695   18698   18687   18686   18695   18697
   18687   18686   18695   18696   18687   18686   18699   18701
   18687   18686   18699   18700   18687   18686   18699   18702
   18691   18686   18687   18688   18695   18686   18687   18688
   18699   18686   18687   18688   18691   18686   18687   18689
   18695   18686   18687   18689   18699   18686   18687   18689
   18691   18686   18687   18690   18695   18686   18687   18690
   18699   18686   18687   18690   18691   18686   18695   18698
   18691   18686   18695   18697   18691   18686   18695   18696
   18691   18686   18699   18701   18691   18686   18699   18700
   18691   18686   18699   18702   18695   18686   18691   18692
   18699   18686   18691   18692   18695   18686   18691   18693
   18699   18686   18691   18693   18695   18686   18691   18694
   18699   18686   18691   18694   18695   18686   18699   18701
   18695   18686   18699   18700   18695   18686   18699   18702
   18699   18686   18695   18696   18699   18686   18695   18697
   18699   18686   18695   18698   18699   18702   18709   18705
   18700   18699   18702   18704   18700   18699   18702   18703
   18700   18699   18702   18709   18701   18699   18702   18704
   18701   18699   18702   18703   18701   18699   18702   18709
   18707   18705   18709   18702   18706   18705   18709   18702
   18708   18705   18709   18702   18703   18702   18709   18705
   18704   18702   18709   18705   18705   18708   18710   18712
   18705   18708   18710   18711   18705   18708   18710   18715
   18706   18705   18708   18710   18707   18705   18708   18710
   18708   18710   18715   18713   18708   18710   18715   18716
   18708   18710   18715   18717   18709   18705   18708   18710
   18765   18713   18715   18710   18714   18713   18715   18710
   18710   18715   18717   18719   18710   18715   18717   18718
   18710   18715   18717   18721   18711   18710   18715   18713
   18711   18710   18715   18716   18711   18710   18715   18717
   18712   18710   18715   18713   18712   18710   18715   18716
   18712   18710   18715   18717   18713   18765   18767   18770
   18713   18765   18767   18769   18713   18765   18767   18768
   18713   18715   18717   18719   18713   18715   18717   18718
   18713   18715   18717   18721   18714   18713   18765   18766
   18714   18713   18765   18767   18714   18713   18715   18716
   18714   18713   18715   18717   18715   18713   18765   18766
   18715   18713   18765   18767   18715   18717   18719   18720
   18715   18717   18721   18723   18715   18717   18721   18722
   18765   18713   18715   18716   18716   18715   18717   18719
   18716   18715   18717   18718   18716   18715   18717   18721
   18765   18713   18715   18717   18717   18721   18723   18724
   18717   18721   18723   18725   18718   18717   18719   18720
   18718   18717   18721   18723   18718   18717   18721   18722
   18719   18717   18721   18723   18719   18717   18721   18722
   18721   18717   18719   18720   18721   18723   18725   18727
   18721   18723   18725   18726   18721   18723   18725   18728
   18722   18721   18723   18724   18722   18721   18723   18725
   18723   18725   18728   18730   18723   18725   18728   18729
   18723   18725   18728   18731   18724   18723   18725   18727
   18724   18723   18725   18726   18724   18723   18725   18728
   18725   18728   18731   18733   18725   18728   18731   18732
   18725   18728   18731   18734   18726   18725   18728   18730
   18726   18725   18728   18729   18726   18725   18728   18731
   18727   18725   18728   18730   18727   18725   18728   18729
   18727   18725   18728   18731   18728   18731   18734   18736
   18728   18731   18734   18735   18728   18731   18734   18737
   18729   18728   18731   18733   18729   18728   18731   18732
   18729   18728   18731   18734   18730   18728   18731   18733
   18730   18728   18731   18732   18730   18728   18731   18734
   18731   18734   18737   18739   18731   18734   18737   18738
   18731   18734   18737   18740   18732   18731   18734   18736
   18732   18731   18734   18735   18732   18731   18734   18737
   18733   18731   18734   18736   18733   18731   18734   18735
   18733   18731   18734   18737   18734   18737   18740   18742
   18734   18737   18740   18741   18734   18737   18740   18743
   18735   18734   18737   18739   18735   18734   18737   18738
   18735   18734   18737   18740   18736   18734   18737   18739
   18736   18734   18737   18738   18736   18734   18737   18740
   18737   18740   18743   18745   18737   18740   18743   18744
   18737   18740   18743   18746   18738   18737   18740   18742
   18738   18737   18740   18741   18738   18737   18740   18743
   18739   18737   18740   18742   18739   18737   18740   18741
   18739   18737   18740   18743   18740   18743   18746   18748
   18740   18743   18746   18747   18740   18743   18746   18749
   18741   18740   18743   18745   18741   18740   18743   18744
   18741   18740   18743   18746   18742   18740   18743   18745
   18742   18740   18743   18744   18742   18740   18743   18746
   18743   18746   18749   18751   18743   18746   18749   18750
   18743   18746   18749   18752   18744   18743   18746   18748
   18744   18743   18746   18747   18744   18743   18746   18749
   18745   18743   18746   18748   18745   18743   18746   18747
   18745   18743   18746   18749   18746   18749   18752   18754
   18746   18749   18752   18753   18746   18749   18752   18755
   18747   18746   18749   18751   18747   18746   18749   18750
   18747   18746   18749   18752   18748   18746   18749   18751
   18748   18746   18749   18750   18748   18746   18749   18752
   18749   18752   18755   18757   18749   18752   18755   18756
   18749   18752   18755   18758   18750   18749   18752   18754
   18750   18749   18752   18753   18750   18749   18752   18755
   18751   18749   18752   18754   18751   18749   18752   18753
   18751   18749   18752   18755   18752   18755   18758   18760
   18752   18755   18758   18759   18752   18755   18758   18761
   18753   18752   18755   18757   18753   18752   18755   18756
   18753   18752   18755   18758   18754   18752   18755   18757
   18754   18752   18755   18756   18754   18752   18755   18758
   18755   18758   18761   18764   18755   18758   18761   18763
   18755   18758   18761   18762   18756   18755   18758   18760
   18756   18755   18758   18759   18756   18755   18758   18761
   18757   18755   18758   18760   18757   18755   18758   18759
   18757   18755   18758   18761   18759   18758   18761   18764
   18759   18758   18761   18763   18759   18758   18761   18762
   18760   18758   18761   18764   18760   18758   18761   18763
   18760   18758   18761   18762   18765   18767   18770   18773
   18765   18767   18770   18772   18765   18767   18770   18771
   18766   18765   18767   18770   18766   18765   18767   18769
   18766   18765   18767   18768   18767   18770   18773   18776
   18767   18770   18773   18775   18767   18770   18773   18774
   18768   18767   18770   18773   18768   18767   18770   18772
   18768   18767   18770   18771   18769   18767   18770   18773
   18769   18767   18770   18772   18769   18767   18770   18771
   18770   18773   18776   18779   18770   18773   18776   18778
   18770   18773   18776   18777   18771   18770   18773   18776
   18771   18770   18773   18775   18771   18770   18773   18774
   18772   18770   18773   18776   18772   18770   18773   18775
   18772   18770   18773   18774   18773   18776   18779   18782
   18773   18776   18779   18781   18773   18776   18779   18780
   18774   18773   18776   18779   18774   18773   18776   18778
   18774   18773   18776   18777   18775   18773   18776   18779
   18775   18773   18776   18778   18775   18773   18776   18777
   18776   18779   18782   18785   18776   18779   18782   18784
   18776   18779   18782   18783   18777   18776   18779   18782
   18777   18776   18779   18781   18777   18776   18779   18780
   18778   18776   18779   18782   18778   18776   18779   18781
   18778   18776   18779   18780   18779   18782   18785   18788
   18779   18782   18785   18787   18779   18782   18785   18786
   18780   18779   18782   18785   18780   18779   18782   18784
   18780   18779   18782   18783   18781   18779   18782   18785
   18781   18779   18782   18784   18781   18779   18782   18783
   18782   18785   18788   18791   18782   18785   18788   18790
   18782   18785   18788   18789   18783   18782   18785   18788
   18783   18782   18785   18787   18783   18782   18785   18786
   18784   18782   18785   18788   18784   18782   18785   18787
   18784   18782   18785   18786   18785   18788   18791   18794
   18785   18788   18791   18793   18785   18788   18791   18792
   18786   18785   18788   18791   18786   18785   18788   18790
   18786   18785   18788   18789   18787   18785   18788   18791
   18787   18785   18788   18790   18787   18785   18788   18789
   18788   18791   18794   18797   18788   18791   18794   18796
   18788   18791   18794   18795   18789   18788   18791   18794
   18789   18788   18791   18793   18789   18788   18791   18792
   18790   18788   18791   18794   18790   18788   18791   18793
   18790   18788   18791   18792   18791   18794   18797   18800
   18791   18794   18797   18799   18791   18794   18797   18798
   18792   18791   18794   18797   18792   18791   18794   18796
   18792   18791   18794   18795   18793   18791   18794   18797
   18793   18791   18794   18796   18793   18791   18794   18795
   18794   18797   18800   18803   18794   18797   18800   18802
   18794   18797   18800   18801   18795   18794   18797   18800
   18795   18794   18797   18799   18795   18794   18797   18798
   18796   18794   18797   18800   18796   18794   18797   18799
   18796   18794   18797   18798   18797   18800   18803   18806
   18797   18800   18803   18805   18797   18800   18803   18804
   18798   18797   18800   18803   18798   18797   18800   18802
   18798   18797   18800   18801   18799   18797   18800   18803
   18799   18797   18800   18802   18799   18797   18800   18801
   18800   18803   18806   18809   18800   18803   18806   18808
   18800   18803   18806   18807   18801   18800   18803   18806
   18801   18800   18803   18805   18801   18800   18803   18804
   18802   18800   18803   18806   18802   18800   18803   18805
   18802   18800   18803   18804   18803   18806   18809   18812
   18803   18806   18809   18811   18803   18806   18809   18810
   18804   18803   18806   18809   18804   18803   18806   18808
   18804   18803   18806   18807   18805   18803   18806   18809
   18805   18803   18806   18808   18805   18803   18806   18807
   18807   18806   18809   18812   18807   18806   18809   18811
   18807   18806   18809   18810   18808   18806   18809   18812
   18808   18806   18809   18811   18808   18806   18809   18810
   18813   18817   18820   18827   18813   18817   18820   18822
   18813   18817   18820   18821   18814   18813   18817   18820
   18814   18813   18817   18819   18814   18813   18817   18818
   18815   18813   18817   18820   18815   18813   18817   18819
   18815   18813   18817   18818   18816   18813   18817   18820
   18816   18813   18817   18819   18816   18813   18817   18818
   18817   18820   18827   18823   18818   18817   18820   18827
   18818   18817   18820   18822   18818   18817   18820   18821
   18819   18817   18820   18827   18819   18817   18820   18822
   18819   18817   18820   18821   18825   18823   18827   18820
   18824   18823   18827   18820   18826   18823   18827   18820
   18821   18820   18827   18823   18822   18820   18827   18823
   18823   18826   18828   18831   18823   18826   18828   18830
   18823   18826   18828   18829   18824   18823   18826   18828
   18825   18823   18826   18828   18826   18828   18831   18833
   18826   18828   18831   18839   18826   18828   18831   18832
   18827   18823   18826   18828   18828   18831   18833   18834
   18828   18831   18839   18842   18828   18831   18839   18841
   18828   18831   18839   18840   18829   18828   18831   18833
   18829   18828   18831   18839   18829   18828   18831   18832
   18830   18828   18831   18833   18830   18828   18831   18839
   18830   18828   18831   18832   18831   18833   18834   18835
   18831   18833   18834   18836   18831   18839   18842   18843
   18832   18831   18833   18834   18832   18831   18839   18842
   18832   18831   18839   18841   18832   18831   18839   18840
   18833   18834   18836   18848   18833   18834   18836   18838
   18833   18834   18836   18837   18833   18831   18839   18842
   18833   18831   18839   18841   18833   18831   18839   18840
   18834   18836   18848   18851   18834   18836   18848   18850
   18834   18836   18848   18849   18839   18831   18833   18834
   18835   18834   18836   18848   18835   18834   18836   18838
   18835   18834   18836   18837   18836   18848   18851   18854
   18836   18848   18851   18853   18836   18848   18851   18852
   18837   18836   18848   18851   18837   18836   18848   18850
   18837   18836   18848   18849   18838   18836   18848   18851
   18838   18836   18848   18850   18838   18836   18848   18849
   18839   18842   18843   18844   18839   18842   18843   18845
   18840   18839   18842   18843   18841   18839   18842   18843
   18842   18843   18845   18895   18842   18843   18845   18847
   18842   18843   18845   18846   18843   18845   18895   18898
   18843   18845   18895   18897   18843   18845   18895   18896
   18844   18843   18845   18895   18844   18843   18845   18847
   18844   18843   18845   18846   18845   18895   18898   18901
   18845   18895   18898   18900   18845   18895   18898   18899
   18846   18845   18895   18898   18846   18845   18895   18897
   18846   18845   18895   18896   18847   18845   18895   18898
   18847   18845   18895   18897   18847   18845   18895   18896
   18848   18851   18854   18857   18848   18851   18854   18856
   18848   18851   18854   18855   18849   18848   18851   18854
   18849   18848   18851   18853   18849   18848   18851   18852
   18850   18848   18851   18854   18850   18848   18851   18853
   18850   18848   18851   18852   18851   18854   18857   18860
   18851   18854   18857   18859   18851   18854   18857   18858
   18852   18851   18854   18857   18852   18851   18854   18856
   18852   18851   18854   18855   18853   18851   18854   18857
   18853   18851   18854   18856   18853   18851   18854   18855
   18854   18857   18860   18863   18854   18857   18860   18862
   18854   18857   18860   18861   18855   18854   18857   18860
   18855   18854   18857   18859   18855   18854   18857   18858
   18856   18854   18857   18860   18856   18854   18857   18859
   18856   18854   18857   18858   18857   18860   18863   18866
   18857   18860   18863   18865   18857   18860   18863   18864
   18858   18857   18860   18863   18858   18857   18860   18862
   18858   18857   18860   18861   18859   18857   18860   18863
   18859   18857   18860   18862   18859   18857   18860   18861
   18860   18863   18866   18868   18860   18863   18866   18867
   18861   18860   18863   18866   18861   18860   18863   18865
   18861   18860   18863   18864   18862   18860   18863   18866
   18862   18860   18863   18865   18862   18860   18863   18864
   18863   18866   18868   18870   18863   18866   18868   18869
   18864   18863   18866   18868   18864   18863   18866   18867
   18865   18863   18866   18868   18865   18863   18866   18867
   18866   18868   18870   18873   18866   18868   18870   18872
   18866   18868   18870   18871   18867   18866   18868   18870
   18867   18866   18868   18869   18868   18870   18873   18876
   18868   18870   18873   18875   18868   18870   18873   18874
   18869   18868   18870   18873   18869   18868   18870   18872
   18869   18868   18870   18871   18870   18873   18876   18879
   18870   18873   18876   18878   18870   18873   18876   18877
   18871   18870   18873   18876   18871   18870   18873   18875
   18871   18870   18873   18874   18872   18870   18873   18876
   18872   18870   18873   18875   18872   18870   18873   18874
   18873   18876   18879   18882   18873   18876   18879   18881
   18873   18876   18879   18880   18874   18873   18876   18879
   18874   18873   18876   18878   18874   18873   18876   18877
   18875   18873   18876   18879   18875   18873   18876   18878
   18875   18873   18876   18877   18876   18879   18882   18885
   18876   18879   18882   18884   18876   18879   18882   18883
   18877   18876   18879   18882   18877   18876   18879   18881
   18877   18876   18879   18880   18878   18876   18879   18882
   18878   18876   18879   18881   18878   18876   18879   18880
   18879   18882   18885   18888   18879   18882   18885   18887
   18879   18882   18885   18886   18880   18879   18882   18885
   18880   18879   18882   18884   18880   18879   18882   18883
   18881   18879   18882   18885   18881   18879   18882   18884
   18881   18879   18882   18883   18882   18885   18888   18891
   18882   18885   18888   18890   18882   18885   18888   18889
   18883   18882   18885   18888   18883   18882   18885   18887
   18883   18882   18885   18886   18884   18882   18885   18888
   18884   18882   18885   18887   18884   18882   18885   18886
   18885   18888   18891   18894   18885   18888   18891   18893
   18885   18888   18891   18892   18886   18885   18888   18891
   18886   18885   18888   18890   18886   18885   18888   18889
   18887   18885   18888   18891   18887   18885   18888   18890
   18887   18885   18888   18889   18889   18888   18891   18894
   18889   18888   18891   18893   18889   18888   18891   18892
   18890   18888   18891   18894   18890   18888   18891   18893
   18890   18888   18891   18892   18895   18898   18901   18904
   18895   18898   18901   18903   18895   18898   18901   18902
   18896   18895   18898   18901   18896   18895   18898   18900
   18896   18895   18898   18899   18897   18895   18898   18901
   18897   18895   18898   18900   18897   18895   18898   18899
   18898   18901   18904   18907   18898   18901   18904   18906
   18898   18901   18904   18905   18899   18898   18901   18904
   18899   18898   18901   18903   18899   18898   18901   18902
   18900   18898   18901   18904   18900   18898   18901   18903
   18900   18898   18901   18902   18901   18904   18907   18910
   18901   18904   18907   18909   18901   18904   18907   18908
   18902   18901   18904   18907   18902   18901   18904   18906
   18902   18901   18904   18905   18903   18901   18904   18907
   18903   18901   18904   18906   18903   18901   18904   18905
   18904   18907   18910   18913   18904   18907   18910   18912
   18904   18907   18910   18911   18905   18904   18907   18910
   18905   18904   18907   18909   18905   18904   18907   18908
   18906   18904   18907   18910   18906   18904   18907   18909
   18906   18904   18907   18908   18907   18910   18913   18916
   18907   18910   18913   18915   18907   18910   18913   18914
   18908   18907   18910   18913   18908   18907   18910   18912
   18908   18907   18910   18911   18909   18907   18910   18913
   18909   18907   18910   18912   18909   18907   18910   18911
   18910   18913   18916   18919   18910   18913   18916   18918
   18910   18913   18916   18917   18911   18910   18913   18916
   18911   18910   18913   18915   18911   18910   18913   18914
   18912   18910   18913   18916   18912   18910   18913   18915
   18912   18910   18913   18914   18913   18916   18919   18922
   18913   18916   18919   18921   18913   18916   18919   18920
   18914   18913   18916   18919   18914   18913   18916   18918
   18914   18913   18916   18917   18915   18913   18916   18919
   18915   18913   18916   18918   18915   18913   18916   18917
   18916   18919   18922   18925   18916   18919   18922   18924
   18916   18919   18922   18923   18917   18916   18919   18922
   18917   18916   18919   18921   18917   18916   18919   18920
   18918   18916   18919   18922   18918   18916   18919   18921
   18918   18916   18919   18920   18919   18922   18925   18928
   18919   18922   18925   18927   18919   18922   18925   18926
   18920   18919   18922   18925   18920   18919   18922   18924
   18920   18919   18922   18923   18921   18919   18922   18925
   18921   18919   18922   18924   18921   18919   18922   18923
   18922   18925   18928   18931   18922   18925   18928   18930
   18922   18925   18928   18929   18923   18922   18925   18928
   18923   18922   18925   18927   18923   18922   18925   18926
   18924   18922   18925   18928   18924   18922   18925   18927
   18924   18922   18925   18926   18925   18928   18931   18934
   18925   18928   18931   18933   18925   18928   18931   18932
   18926   18925   18928   18931   18926   18925   18928   18930
   18926   18925   18928   18929   18927   18925   18928   18931
   18927   18925   18928   18930   18927   18925   18928   18929
   18928   18931   18934   18937   18928   18931   18934   18936
   18928   18931   18934   18935   18929   18928   18931   18934
   18929   18928   18931   18933   18929   18928   18931   18932
   18930   18928   18931   18934   18930   18928   18931   18933
   18930   18928   18931   18932   18932   18931   18934   18937
   18932   18931   18934   18936   18932   18931   18934   18935
   18933   18931   18934   18937   18933   18931   18934   18936
   18933   18931   18934   18935   18938   18939   18954   18960
   18938   18939   18954   18956   18938   18939   18954   18955
   18939   18954   18960   18957   18939   18938   18950   18953
   18939   18938   18950   18952   18939   18938   18950   18951
   18939   18938   18946   18949   18939   18938   18946   18948
   18939   18938   18946   18947   18939   18938   18942   18945
   18939   18938   18942   18944   18939   18938   18942   18943
   18940   18939   18954   18960   18940   18939   18954   18956
   18940   18939   18954   18955   18950   18938   18939   18940
   18946   18938   18939   18940   18942   18938   18939   18940
   18941   18939   18954   18960   18941   18939   18954   18956
   18941   18939   18954   18955   18950   18938   18939   18941
   18946   18938   18939   18941   18942   18938   18939   18941
   18942   18938   18939   18954   18942   18938   18950   18953
   18942   18938   18950   18952   18942   18938   18950   18951
   18942   18938   18946   18949   18942   18938   18946   18948
   18942   18938   18946   18947   18950   18938   18942   18943
   18946   18938   18942   18943   18950   18938   18942   18944
   18946   18938   18942   18944   18950   18938   18942   18945
   18946   18938   18942   18945   18946   18938   18939   18954
   18946   18938   18950   18953   18946   18938   18950   18952
   18946   18938   18950   18951   18950   18938   18946   18947
   18950   18938   18946   18948   18950   18938   18946   18949
   18950   18938   18939   18954   18959   18957   18960   18954
   18958   18957   18960   18954   18961   18957   18960   18954
   18955   18954   18960   18957   18956   18954   18960   18957
   18957   18961   18962   18965   18957   18961   18962   18964
   18957   18961   18962   18963   18958   18957   18961   18962
   18959   18957   18961   18962   18960   18957   18961   18962
   18961   18962   18965   18967   18961   18962   18965   18973
   18961   18962   18965   18966   18962   18965   18967   18968
   18962   18965   18973   18976   18962   18965   18973   18975
   18962   18965   18973   18974   18963   18962   18965   18967
   18963   18962   18965   18973   18963   18962   18965   18966
   18964   18962   18965   18967   18964   18962   18965   18973
   18964   18962   18965   18966   18965   18967   18968   18969
   18965   18967   18968   18970   18965   18973   18976   18977
   18966   18965   18967   18968   18966   18965   18973   18976
   18966   18965   18973   18975   18966   18965   18973   18974
   18967   18968   18970   18982   18967   18968   18970   18972
   18967   18968   18970   18971   18967   18965   18973   18976
   18967   18965   18973   18975   18967   18965   18973   18974
   18968   18970   18982   18985   18968   18970   18982   18984
   18968   18970   18982   18983   18973   18965   18967   18968
   18969   18968   18970   18982   18969   18968   18970   18972
   18969   18968   18970   18971   18970   18982   18985   18988
   18970   18982   18985   18987   18970   18982   18985   18986
   18971   18970   18982   18985   18971   18970   18982   18984
   18971   18970   18982   18983   18972   18970   18982   18985
   18972   18970   18982   18984   18972   18970   18982   18983
   18973   18976   18977   18978   18973   18976   18977   18979
   18974   18973   18976   18977   18975   18973   18976   18977
   18976   18977   18979   19029   18976   18977   18979   18981
   18976   18977   18979   18980   18977   18979   19029   19032
   18977   18979   19029   19031   18977   18979   19029   19030
   18978   18977   18979   19029   18978   18977   18979   18981
   18978   18977   18979   18980   18979   19029   19032   19035
   18979   19029   19032   19034   18979   19029   19032   19033
   18980   18979   19029   19032   18980   18979   19029   19031
   18980   18979   19029   19030   18981   18979   19029   19032
   18981   18979   19029   19031   18981   18979   19029   19030
   18982   18985   18988   18991   18982   18985   18988   18990
   18982   18985   18988   18989   18983   18982   18985   18988
   18983   18982   18985   18987   18983   18982   18985   18986
   18984   18982   18985   18988   18984   18982   18985   18987
   18984   18982   18985   18986   18985   18988   18991   18994
   18985   18988   18991   18993   18985   18988   18991   18992
   18986   18985   18988   18991   18986   18985   18988   18990
   18986   18985   18988   18989   18987   18985   18988   18991
   18987   18985   18988   18990   18987   18985   18988   18989
   18988   18991   18994   18997   18988   18991   18994   18996
   18988   18991   18994   18995   18989   18988   18991   18994
   18989   18988   18991   18993   18989   18988   18991   18992
   18990   18988   18991   18994   18990   18988   18991   18993
   18990   18988   18991   18992   18991   18994   18997   19000
   18991   18994   18997   18999   18991   18994   18997   18998
   18992   18991   18994   18997   18992   18991   18994   18996
   18992   18991   18994   18995   18993   18991   18994   18997
   18993   18991   18994   18996   18993   18991   18994   18995
   18994   18997   19000   19002   18994   18997   19000   19001
   18995   18994   18997   19000   18995   18994   18997   18999
   18995   18994   18997   18998   18996   18994   18997   19000
   18996   18994   18997   18999   18996   18994   18997   18998
   18997   19000   19002   19004   18997   19000   19002   19003
   18998   18997   19000   19002   18998   18997   19000   19001
   18999   18997   19000   19002   18999   18997   19000   19001
   19000   19002   19004   19007   19000   19002   19004   19006
   19000   19002   19004   19005   19001   19000   19002   19004
   19001   19000   19002   19003   19002   19004   19007   19010
   19002   19004   19007   19009   19002   19004   19007   19008
   19003   19002   19004   19007   19003   19002   19004   19006
   19003   19002   19004   19005   19004   19007   19010   19013
   19004   19007   19010   19012   19004   19007   19010   19011
   19005   19004   19007   19010   19005   19004   19007   19009
   19005   19004   19007   19008   19006   19004   19007   19010
   19006   19004   19007   19009   19006   19004   19007   19008
   19007   19010   19013   19016   19007   19010   19013   19015
   19007   19010   19013   19014   19008   19007   19010   19013
   19008   19007   19010   19012   19008   19007   19010   19011
   19009   19007   19010   19013   19009   19007   19010   19012
   19009   19007   19010   19011   19010   19013   19016   19019
   19010   19013   19016   19018   19010   19013   19016   19017
   19011   19010   19013   19016   19011   19010   19013   19015
   19011   19010   19013   19014   19012   19010   19013   19016
   19012   19010   19013   19015   19012   19010   19013   19014
   19013   19016   19019   19022   19013   19016   19019   19021
   19013   19016   19019   19020   19014   19013   19016   19019
   19014   19013   19016   19018   19014   19013   19016   19017
   19015   19013   19016   19019   19015   19013   19016   19018
   19015   19013   19016   19017   19016   19019   19022   19025
   19016   19019   19022   19024   19016   19019   19022   19023
   19017   19016   19019   19022   19017   19016   19019   19021
   19017   19016   19019   19020   19018   19016   19019   19022
   19018   19016   19019   19021   19018   19016   19019   19020
   19019   19022   19025   19028   19019   19022   19025   19027
   19019   19022   19025   19026   19020   19019   19022   19025
   19020   19019   19022   19024   19020   19019   19022   19023
   19021   19019   19022   19025   19021   19019   19022   19024
   19021   19019   19022   19023   19023   19022   19025   19028
   19023   19022   19025   19027   19023   19022   19025   19026
   19024   19022   19025   19028   19024   19022   19025   19027
   19024   19022   19025   19026   19029   19032   19035   19038
   19029   19032   19035   19037   19029   19032   19035   19036
   19030   19029   19032   19035   19030   19029   19032   19034
   19030   19029   19032   19033   19031   19029   19032   19035
   19031   19029   19032   19034   19031   19029   19032   19033
   19032   19035   19038   19041   19032   19035   19038   19040
   19032   19035   19038   19039   19033   19032   19035   19038
   19033   19032   19035   19037   19033   19032   19035   19036
   19034   19032   19035   19038   19034   19032   19035   19037
   19034   19032   19035   19036   19035   19038   19041   19044
   19035   19038   19041   19043   19035   19038   19041   19042
   19036   19035   19038   19041   19036   19035   19038   19040
   19036   19035   19038   19039   19037   19035   19038   19041
   19037   19035   19038   19040   19037   19035   19038   19039
   19038   19041   19044   19047   19038   19041   19044   19046
   19038   19041   19044   19045   19039   19038   19041   19044
   19039   19038   19041   19043   19039   19038   19041   19042
   19040   19038   19041   19044   19040   19038   19041   19043
   19040   19038   19041   19042   19041   19044   19047   19050
   19041   19044   19047   19049   19041   19044   19047   19048
   19042   19041   19044   19047   19042   19041   19044   19046
   19042   19041   19044   19045   19043   19041   19044   19047
   19043   19041   19044   19046   19043   19041   19044   19045
   19044   19047   19050   19053   19044   19047   19050   19052
   19044   19047   19050   19051   19045   19044   19047   19050
   19045   19044   19047   19049   19045   19044   19047   19048
   19046   19044   19047   19050   19046   19044   19047   19049
   19046   19044   19047   19048   19047   19050   19053   19056
   19047   19050   19053   19055   19047   19050   19053   19054
   19048   19047   19050   19053   19048   19047   19050   19052
   19048   19047   19050   19051   19049   19047   19050   19053
   19049   19047   19050   19052   19049   19047   19050   19051
   19050   19053   19056   19059   19050   19053   19056   19058
   19050   19053   19056   19057   19051   19050   19053   19056
   19051   19050   19053   19055   19051   19050   19053   19054
   19052   19050   19053   19056   19052   19050   19053   19055
   19052   19050   19053   19054   19053   19056   19059   19062
   19053   19056   19059   19061   19053   19056   19059   19060
   19054   19053   19056   19059   19054   19053   19056   19058
   19054   19053   19056   19057   19055   19053   19056   19059
   19055   19053   19056   19058   19055   19053   19056   19057
   19056   19059   19062   19065   19056   19059   19062   19064
   19056   19059   19062   19063   19057   19056   19059   19062
   19057   19056   19059   19061   19057   19056   19059   19060
   19058   19056   19059   19062   19058   19056   19059   19061
   19058   19056   19059   19060   19059   19062   19065   19068
   19059   19062   19065   19067   19059   19062   19065   19066
   19060   19059   19062   19065   19060   19059   19062   19064
   19060   19059   19062   19063   19061   19059   19062   19065
   19061   19059   19062   19064   19061   19059   19062   19063
   19062   19065   19068   19071   19062   19065   19068   19070
   19062   19065   19068   19069   19063   19062   19065   19068
   19063   19062   19065   19067   19063   19062   19065   19066
   19064   19062   19065   19068   19064   19062   19065   19067
   19064   19062   19065   19066   19066   19065   19068   19071
   19066   19065   19068   19070   19066   19065   19068   19069
   19067   19065   19068   19071   19067   19065   19068   19070
   19067   19065   19068   19069   19072   19073   19088   19094
   19072   19073   19088   19090   19072   19073   19088   19089
   19073   19088   19094   19091   19073   19072   19084   19087
   19073   19072   19084   19086   19073   19072   19084   19085
   19073   19072   19080   19083   19073   19072   19080   19082
   19073   19072   19080   19081   19073   19072   19076   19079
   19073   19072   19076   19078   19073   19072   19076   19077
   19074   19073   19088   19094   19074   19073   19088   19090
   19074   19073   19088   19089   19084   19072   19073   19074
   19080   19072   19073   19074   19076   19072   19073   19074
   19075   19073   19088   19094   19075   19073   19088   19090
   19075   19073   19088   19089   19084   19072   19073   19075
   19080   19072   19073   19075   19076   19072   19073   19075
   19076   19072   19073   19088   19076   19072   19084   19087
   19076   19072   19084   19086   19076   19072   19084   19085
   19076   19072   19080   19083   19076   19072   19080   19082
   19076   19072   19080   19081   19084   19072   19076   19077
   19080   19072   19076   19077   19084   19072   19076   19078
   19080   19072   19076   19078   19084   19072   19076   19079
   19080   19072   19076   19079   19080   19072   19073   19088
   19080   19072   19084   19087   19080   19072   19084   19086
   19080   19072   19084   19085   19084   19072   19080   19081
   19084   19072   19080   19082   19084   19072   19080   19083
   19084   19072   19073   19088   19093   19091   19094   19088
   19092   19091   19094   19088   19095   19091   19094   19088
   19089   19088   19094   19091   19090   19088   19094   19091
   19091   19095   19096   19099   19091   19095   19096   19098
   19091   19095   19096   19097   19092   19091   19095   19096
   19093   19091   19095   19096   19094   19091   19095   19096
   19095   19096   19099   19101   19095   19096   19099   19107
   19095   19096   19099   19100   19096   19099   19101   19102
   19096   19099   19107   19110   19096   19099   19107   19109
   19096   19099   19107   19108   19097   19096   19099   19101
   19097   19096   19099   19107   19097   19096   19099   19100
   19098   19096   19099   19101   19098   19096   19099   19107
   19098   19096   19099   19100   19099   19101   19102   19103
   19099   19101   19102   19104   19099   19107   19110   19111
   19100   19099   19101   19102   19100   19099   19107   19110
   19100   19099   19107   19109   19100   19099   19107   19108
   19101   19102   19104   19116   19101   19102   19104   19106
   19101   19102   19104   19105   19101   19099   19107   19110
   19101   19099   19107   19109   19101   19099   19107   19108
   19102   19104   19116   19119   19102   19104   19116   19118
   19102   19104   19116   19117   19107   19099   19101   19102
   19103   19102   19104   19116   19103   19102   19104   19106
   19103   19102   19104   19105   19104   19116   19119   19122
   19104   19116   19119   19121   19104   19116   19119   19120
   19105   19104   19116   19119   19105   19104   19116   19118
   19105   19104   19116   19117   19106   19104   19116   19119
   19106   19104   19116   19118   19106   19104   19116   19117
   19107   19110   19111   19112   19107   19110   19111   19113
   19108   19107   19110   19111   19109   19107   19110   19111
   19110   19111   19113   19163   19110   19111   19113   19115
   19110   19111   19113   19114   19111   19113   19163   19166
   19111   19113   19163   19165   19111   19113   19163   19164
   19112   19111   19113   19163   19112   19111   19113   19115
   19112   19111   19113   19114   19113   19163   19166   19169
   19113   19163   19166   19168   19113   19163   19166   19167
   19114   19113   19163   19166   19114   19113   19163   19165
   19114   19113   19163   19164   19115   19113   19163   19166
   19115   19113   19163   19165   19115   19113   19163   19164
   19116   19119   19122   19125   19116   19119   19122   19124
   19116   19119   19122   19123   19117   19116   19119   19122
   19117   19116   19119   19121   19117   19116   19119   19120
   19118   19116   19119   19122   19118   19116   19119   19121
   19118   19116   19119   19120   19119   19122   19125   19128
   19119   19122   19125   19127   19119   19122   19125   19126
   19120   19119   19122   19125   19120   19119   19122   19124
   19120   19119   19122   19123   19121   19119   19122   19125
   19121   19119   19122   19124   19121   19119   19122   19123
   19122   19125   19128   19131   19122   19125   19128   19130
   19122   19125   19128   19129   19123   19122   19125   19128
   19123   19122   19125   19127   19123   19122   19125   19126
   19124   19122   19125   19128   19124   19122   19125   19127
   19124   19122   19125   19126   19125   19128   19131   19134
   19125   19128   19131   19133   19125   19128   19131   19132
   19126   19125   19128   19131   19126   19125   19128   19130
   19126   19125   19128   19129   19127   19125   19128   19131
   19127   19125   19128   19130   19127   19125   19128   19129
   19128   19131   19134   19136   19128   19131   19134   19135
   19129   19128   19131   19134   19129   19128   19131   19133
   19129   19128   19131   19132   19130   19128   19131   19134
   19130   19128   19131   19133   19130   19128   19131   19132
   19131   19134   19136   19138   19131   19134   19136   19137
   19132   19131   19134   19136   19132   19131   19134   19135
   19133   19131   19134   19136   19133   19131   19134   19135
   19134   19136   19138   19141   19134   19136   19138   19140
   19134   19136   19138   19139   19135   19134   19136   19138
   19135   19134   19136   19137   19136   19138   19141   19144
   19136   19138   19141   19143   19136   19138   19141   19142
   19137   19136   19138   19141   19137   19136   19138   19140
   19137   19136   19138   19139   19138   19141   19144   19147
   19138   19141   19144   19146   19138   19141   19144   19145
   19139   19138   19141   19144   19139   19138   19141   19143
   19139   19138   19141   19142   19140   19138   19141   19144
   19140   19138   19141   19143   19140   19138   19141   19142
   19141   19144   19147   19150   19141   19144   19147   19149
   19141   19144   19147   19148   19142   19141   19144   19147
   19142   19141   19144   19146   19142   19141   19144   19145
   19143   19141   19144   19147   19143   19141   19144   19146
   19143   19141   19144   19145   19144   19147   19150   19153
   19144   19147   19150   19152   19144   19147   19150   19151
   19145   19144   19147   19150   19145   19144   19147   19149
   19145   19144   19147   19148   19146   19144   19147   19150
   19146   19144   19147   19149   19146   19144   19147   19148
   19147   19150   19153   19156   19147   19150   19153   19155
   19147   19150   19153   19154   19148   19147   19150   19153
   19148   19147   19150   19152   19148   19147   19150   19151
   19149   19147   19150   19153   19149   19147   19150   19152
   19149   19147   19150   19151   19150   19153   19156   19159
   19150   19153   19156   19158   19150   19153   19156   19157
   19151   19150   19153   19156   19151   19150   19153   19155
   19151   19150   19153   19154   19152   19150   19153   19156
   19152   19150   19153   19155   19152   19150   19153   19154
   19153   19156   19159   19162   19153   19156   19159   19161
   19153   19156   19159   19160   19154   19153   19156   19159
   19154   19153   19156   19158   19154   19153   19156   19157
   19155   19153   19156   19159   19155   19153   19156   19158
   19155   19153   19156   19157   19157   19156   19159   19162
   19157   19156   19159   19161   19157   19156   19159   19160
   19158   19156   19159   19162   19158   19156   19159   19161
   19158   19156   19159   19160   19163   19166   19169   19172
   19163   19166   19169   19171   19163   19166   19169   19170
   19164   19163   19166   19169   19164   19163   19166   19168
   19164   19163   19166   19167   19165   19163   19166   19169
   19165   19163   19166   19168   19165   19163   19166   19167
   19166   19169   19172   19175   19166   19169   19172   19174
   19166   19169   19172   19173   19167   19166   19169   19172
   19167   19166   19169   19171   19167   19166   19169   19170
   19168   19166   19169   19172   19168   19166   19169   19171
   19168   19166   19169   19170   19169   19172   19175   19178
   19169   19172   19175   19177   19169   19172   19175   19176
   19170   19169   19172   19175   19170   19169   19172   19174
   19170   19169   19172   19173   19171   19169   19172   19175
   19171   19169   19172   19174   19171   19169   19172   19173
   19172   19175   19178   19181   19172   19175   19178   19180
   19172   19175   19178   19179   19173   19172   19175   19178
   19173   19172   19175   19177   19173   19172   19175   19176
   19174   19172   19175   19178   19174   19172   19175   19177
   19174   19172   19175   19176   19175   19178   19181   19184
   19175   19178   19181   19183   19175   19178   19181   19182
   19176   19175   19178   19181   19176   19175   19178   19180
   19176   19175   19178   19179   19177   19175   19178   19181
   19177   19175   19178   19180   19177   19175   19178   19179
   19178   19181   19184   19187   19178   19181   19184   19186
   19178   19181   19184   19185   19179   19178   19181   19184
   19179   19178   19181   19183   19179   19178   19181   19182
   19180   19178   19181   19184   19180   19178   19181   19183
   19180   19178   19181   19182   19181   19184   19187   19190
   19181   19184   19187   19189   19181   19184   19187   19188
   19182   19181   19184   19187   19182   19181   19184   19186
   19182   19181   19184   19185   19183   19181   19184   19187
   19183   19181   19184   19186   19183   19181   19184   19185
   19184   19187   19190   19193   19184   19187   19190   19192
   19184   19187   19190   19191   19185   19184   19187   19190
   19185   19184   19187   19189   19185   19184   19187   19188
   19186   19184   19187   19190   19186   19184   19187   19189
   19186   19184   19187   19188   19187   19190   19193   19196
   19187   19190   19193   19195   19187   19190   19193   19194
   19188   19187   19190   19193   19188   19187   19190   19192
   19188   19187   19190   19191   19189   19187   19190   19193
   19189   19187   19190   19192   19189   19187   19190   19191
   19190   19193   19196   19199   19190   19193   19196   19198
   19190   19193   19196   19197   19191   19190   19193   19196
   19191   19190   19193   19195   19191   19190   19193   19194
   19192   19190   19193   19196   19192   19190   19193   19195
   19192   19190   19193   19194   19193   19196   19199   19202
   19193   19196   19199   19201   19193   19196   19199   19200
   19194   19193   19196   19199   19194   19193   19196   19198
   19194   19193   19196   19197   19195   19193   19196   19199
   19195   19193   19196   19198   19195   19193   19196   19197
   19196   19199   19202   19205   19196   19199   19202   19204
   19196   19199   19202   19203   19197   19196   19199   19202
   19197   19196   19199   19201   19197   19196   19199   19200
   19198   19196   19199   19202   19198   19196   19199   19201
   19198   19196   19199   19200   19200   19199   19202   19205
   19200   19199   19202   19204   19200   19199   19202   19203
   19201   19199   19202   19205   19201   19199   19202   19204
   19201   19199   19202   19203   19206   19210   19213   19220
   19206   19210   19213   19215   19206   19210   19213   19214
   19207   19206   19210   19213   19207   19206   19210   19212
   19207   19206   19210   19211   19208   19206   19210   19213
   19208   19206   19210   19212   19208   19206   19210   19211
   19209   19206   19210   19213   19209   19206   19210   19212
   19209   19206   19210   19211   19210   19213   19220   19216
   19211   19210   19213   19220   19211   19210   19213   19215
   19211   19210   19213   19214   19212   19210   19213   19220
   19212   19210   19213   19215   19212   19210   19213   19214
   19218   19216   19220   19213   19217   19216   19220   19213
   19219   19216   19220   19213   19214   19213   19220   19216
   19215   19213   19220   19216   19216   19219   19221   19224
   19216   19219   19221   19223   19216   19219   19221   19222
   19217   19216   19219   19221   19218   19216   19219   19221
   19219   19221   19224   19226   19219   19221   19224   19232
   19219   19221   19224   19225   19220   19216   19219   19221
   19221   19224   19226   19227   19221   19224   19232   19235
   19221   19224   19232   19234   19221   19224   19232   19233
   19222   19221   19224   19226   19222   19221   19224   19232
   19222   19221   19224   19225   19223   19221   19224   19226
   19223   19221   19224   19232   19223   19221   19224   19225
   19224   19226   19227   19228   19224   19226   19227   19229
   19224   19232   19235   19236   19225   19224   19226   19227
   19225   19224   19232   19235   19225   19224   19232   19234
   19225   19224   19232   19233   19226   19227   19229   19241
   19226   19227   19229   19231   19226   19227   19229   19230
   19226   19224   19232   19235   19226   19224   19232   19234
   19226   19224   19232   19233   19227   19229   19241   19244
   19227   19229   19241   19243   19227   19229   19241   19242
   19232   19224   19226   19227   19228   19227   19229   19241
   19228   19227   19229   19231   19228   19227   19229   19230
   19229   19241   19244   19247   19229   19241   19244   19246
   19229   19241   19244   19245   19230   19229   19241   19244
   19230   19229   19241   19243   19230   19229   19241   19242
   19231   19229   19241   19244   19231   19229   19241   19243
   19231   19229   19241   19242   19232   19235   19236   19237
   19232   19235   19236   19238   19233   19232   19235   19236
   19234   19232   19235   19236   19235   19236   19238   19288
   19235   19236   19238   19240   19235   19236   19238   19239
   19236   19238   19288   19291   19236   19238   19288   19290
   19236   19238   19288   19289   19237   19236   19238   19288
   19237   19236   19238   19240   19237   19236   19238   19239
   19238   19288   19291   19294   19238   19288   19291   19293
   19238   19288   19291   19292   19239   19238   19288   19291
   19239   19238   19288   19290   19239   19238   19288   19289
   19240   19238   19288   19291   19240   19238   19288   19290
   19240   19238   19288   19289   19241   19244   19247   19250
   19241   19244   19247   19249   19241   19244   19247   19248
   19242   19241   19244   19247   19242   19241   19244   19246
   19242   19241   19244   19245   19243   19241   19244   19247
   19243   19241   19244   19246   19243   19241   19244   19245
   19244   19247   19250   19253   19244   19247   19250   19252
   19244   19247   19250   19251   19245   19244   19247   19250
   19245   19244   19247   19249   19245   19244   19247   19248
   19246   19244   19247   19250   19246   19244   19247   19249
   19246   19244   19247   19248   19247   19250   19253   19256
   19247   19250   19253   19255   19247   19250   19253   19254
   19248   19247   19250   19253   19248   19247   19250   19252
   19248   19247   19250   19251   19249   19247   19250   19253
   19249   19247   19250   19252   19249   19247   19250   19251
   19250   19253   19256   19259   19250   19253   19256   19258
   19250   19253   19256   19257   19251   19250   19253   19256
   19251   19250   19253   19255   19251   19250   19253   19254
   19252   19250   19253   19256   19252   19250   19253   19255
   19252   19250   19253   19254   19253   19256   19259   19261
   19253   19256   19259   19260   19254   19253   19256   19259
   19254   19253   19256   19258   19254   19253   19256   19257
   19255   19253   19256   19259   19255   19253   19256   19258
   19255   19253   19256   19257   19256   19259   19261   19263
   19256   19259   19261   19262   19257   19256   19259   19261
   19257   19256   19259   19260   19258   19256   19259   19261
   19258   19256   19259   19260   19259   19261   19263   19266
   19259   19261   19263   19265   19259   19261   19263   19264
   19260   19259   19261   19263   19260   19259   19261   19262
   19261   19263   19266   19269   19261   19263   19266   19268
   19261   19263   19266   19267   19262   19261   19263   19266
   19262   19261   19263   19265   19262   19261   19263   19264
   19263   19266   19269   19272   19263   19266   19269   19271
   19263   19266   19269   19270   19264   19263   19266   19269
   19264   19263   19266   19268   19264   19263   19266   19267
   19265   19263   19266   19269   19265   19263   19266   19268
   19265   19263   19266   19267   19266   19269   19272   19275
   19266   19269   19272   19274   19266   19269   19272   19273
   19267   19266   19269   19272   19267   19266   19269   19271
   19267   19266   19269   19270   19268   19266   19269   19272
   19268   19266   19269   19271   19268   19266   19269   19270
   19269   19272   19275   19278   19269   19272   19275   19277
   19269   19272   19275   19276   19270   19269   19272   19275
   19270   19269   19272   19274   19270   19269   19272   19273
   19271   19269   19272   19275   19271   19269   19272   19274
   19271   19269   19272   19273   19272   19275   19278   19281
   19272   19275   19278   19280   19272   19275   19278   19279
   19273   19272   19275   19278   19273   19272   19275   19277
   19273   19272   19275   19276   19274   19272   19275   19278
   19274   19272   19275   19277   19274   19272   19275   19276
   19275   19278   19281   19284   19275   19278   19281   19283
   19275   19278   19281   19282   19276   19275   19278   19281
   19276   19275   19278   19280   19276   19275   19278   19279
   19277   19275   19278   19281   19277   19275   19278   19280
   19277   19275   19278   19279   19278   19281   19284   19287
   19278   19281   19284   19286   19278   19281   19284   19285
   19279   19278   19281   19284   19279   19278   19281   19283
   19279   19278   19281   19282   19280   19278   19281   19284
   19280   19278   19281   19283   19280   19278   19281   19282
   19282   19281   19284   19287   19282   19281   19284   19286
   19282   19281   19284   19285   19283   19281   19284   19287
   19283   19281   19284   19286   19283   19281   19284   19285
   19288   19291   19294   19297   19288   19291   19294   19296
   19288   19291   19294   19295   19289   19288   19291   19294
   19289   19288   19291   19293   19289   19288   19291   19292
   19290   19288   19291   19294   19290   19288   19291   19293
   19290   19288   19291   19292   19291   19294   19297   19300
   19291   19294   19297   19299   19291   19294   19297   19298
   19292   19291   19294   19297   19292   19291   19294   19296
   19292   19291   19294   19295   19293   19291   19294   19297
   19293   19291   19294   19296   19293   19291   19294   19295
   19294   19297   19300   19303   19294   19297   19300   19302
   19294   19297   19300   19301   19295   19294   19297   19300
   19295   19294   19297   19299   19295   19294   19297   19298
   19296   19294   19297   19300   19296   19294   19297   19299
   19296   19294   19297   19298   19297   19300   19303   19306
   19297   19300   19303   19305   19297   19300   19303   19304
   19298   19297   19300   19303   19298   19297   19300   19302
   19298   19297   19300   19301   19299   19297   19300   19303
   19299   19297   19300   19302   19299   19297   19300   19301
   19300   19303   19306   19309   19300   19303   19306   19308
   19300   19303   19306   19307   19301   19300   19303   19306
   19301   19300   19303   19305   19301   19300   19303   19304
   19302   19300   19303   19306   19302   19300   19303   19305
   19302   19300   19303   19304   19303   19306   19309   19312
   19303   19306   19309   19311   19303   19306   19309   19310
   19304   19303   19306   19309   19304   19303   19306   19308
   19304   19303   19306   19307   19305   19303   19306   19309
   19305   19303   19306   19308   19305   19303   19306   19307
   19306   19309   19312   19315   19306   19309   19312   19314
   19306   19309   19312   19313   19307   19306   19309   19312
   19307   19306   19309   19311   19307   19306   19309   19310
   19308   19306   19309   19312   19308   19306   19309   19311
   19308   19306   19309   19310   19309   19312   19315   19318
   19309   19312   19315   19317   19309   19312   19315   19316
   19310   19309   19312   19315   19310   19309   19312   19314
   19310   19309   19312   19313   19311   19309   19312   19315
   19311   19309   19312   19314   19311   19309   19312   19313
   19312   19315   19318   19321   19312   19315   19318   19320
   19312   19315   19318   19319   19313   19312   19315   19318
   19313   19312   19315   19317   19313   19312   19315   19316
   19314   19312   19315   19318   19314   19312   19315   19317
   19314   19312   19315   19316   19315   19318   19321   19324
   19315   19318   19321   19323   19315   19318   19321   19322
   19316   19315   19318   19321   19316   19315   19318   19320
   19316   19315   19318   19319   19317   19315   19318   19321
   19317   19315   19318   19320   19317   19315   19318   19319
   19318   19321   19324   19327   19318   19321   19324   19326
   19318   19321   19324   19325   19319   19318   19321   19324
   19319   19318   19321   19323   19319   19318   19321   19322
   19320   19318   19321   19324   19320   19318   19321   19323
   19320   19318   19321   19322   19321   19324   19327   19330
   19321   19324   19327   19329   19321   19324   19327   19328
   19322   19321   19324   19327   19322   19321   19324   19326
   19322   19321   19324   19325   19323   19321   19324   19327
   19323   19321   19324   19326   19323   19321   19324   19325
   19325   19324   19327   19330   19325   19324   19327   19329
   19325   19324   19327   19328   19326   19324   19327   19330
   19326   19324   19327   19329   19326   19324   19327   19328
   19331   19332   19347   19353   19331   19332   19347   19349
   19331   19332   19347   19348   19332   19347   19353   19350
   19332   19331   19343   19346   19332   19331   19343   19345
   19332   19331   19343   19344   19332   19331   19339   19342
   19332   19331   19339   19341   19332   19331   19339   19340
   19332   19331   19335   19338   19332   19331   19335   19337
   19332   19331   19335   19336   19333   19332   19347   19353
   19333   19332   19347   19349   19333   19332   19347   19348
   19343   19331   19332   19333   19339   19331   19332   19333
   19335   19331   19332   19333   19334   19332   19347   19353
   19334   19332   19347   19349   19334   19332   19347   19348
   19343   19331   19332   19334   19339   19331   19332   19334
   19335   19331   19332   19334   19335   19331   19332   19347
   19335   19331   19343   19346   19335   19331   19343   19345
   19335   19331   19343   19344   19335   19331   19339   19342
   19335   19331   19339   19341   19335   19331   19339   19340
   19343   19331   19335   19336   19339   19331   19335   19336
   19343   19331   19335   19337   19339   19331   19335   19337
   19343   19331   19335   19338   19339   19331   19335   19338
   19339   19331   19332   19347   19339   19331   19343   19346
   19339   19331   19343   19345   19339   19331   19343   19344
   19343   19331   19339   19340   19343   19331   19339   19341
   19343   19331   19339   19342   19343   19331   19332   19347
   19352   19350   19353   19347   19351   19350   19353   19347
   19354   19350   19353   19347   19348   19347   19353   19350
   19349   19347   19353   19350   19350   19354   19355   19358
   19350   19354   19355   19357   19350   19354   19355   19356
   19351   19350   19354   19355   19352   19350   19354   19355
   19353   19350   19354   19355   19354   19355   19358   19360
   19354   19355   19358   19366   19354   19355   19358   19359
   19355   19358   19360   19361   19355   19358   19366   19369
   19355   19358   19366   19368   19355   19358   19366   19367
   19356   19355   19358   19360   19356   19355   19358   19366
   19356   19355   19358   19359   19357   19355   19358   19360
   19357   19355   19358   19366   19357   19355   19358   19359
   19358   19360   19361   19362   19358   19360   19361   19363
   19358   19366   19369   19370   19359   19358   19360   19361
   19359   19358   19366   19369   19359   19358   19366   19368
   19359   19358   19366   19367   19360   19361   19363   19375
   19360   19361   19363   19365   19360   19361   19363   19364
   19360   19358   19366   19369   19360   19358   19366   19368
   19360   19358   19366   19367   19361   19363   19375   19378
   19361   19363   19375   19377   19361   19363   19375   19376
   19366   19358   19360   19361   19362   19361   19363   19375
   19362   19361   19363   19365   19362   19361   19363   19364
   19363   19375   19378   19381   19363   19375   19378   19380
   19363   19375   19378   19379   19364   19363   19375   19378
   19364   19363   19375   19377   19364   19363   19375   19376
   19365   19363   19375   19378   19365   19363   19375   19377
   19365   19363   19375   19376   19366   19369   19370   19371
   19366   19369   19370   19372   19367   19366   19369   19370
   19368   19366   19369   19370   19369   19370   19372   19422
   19369   19370   19372   19374   19369   19370   19372   19373
   19370   19372   19422   19425   19370   19372   19422   19424
   19370   19372   19422   19423   19371   19370   19372   19422
   19371   19370   19372   19374   19371   19370   19372   19373
   19372   19422   19425   19428   19372   19422   19425   19427
   19372   19422   19425   19426   19373   19372   19422   19425
   19373   19372   19422   19424   19373   19372   19422   19423
   19374   19372   19422   19425   19374   19372   19422   19424
   19374   19372   19422   19423   19375   19378   19381   19384
   19375   19378   19381   19383   19375   19378   19381   19382
   19376   19375   19378   19381   19376   19375   19378   19380
   19376   19375   19378   19379   19377   19375   19378   19381
   19377   19375   19378   19380   19377   19375   19378   19379
   19378   19381   19384   19387   19378   19381   19384   19386
   19378   19381   19384   19385   19379   19378   19381   19384
   19379   19378   19381   19383   19379   19378   19381   19382
   19380   19378   19381   19384   19380   19378   19381   19383
   19380   19378   19381   19382   19381   19384   19387   19390
   19381   19384   19387   19389   19381   19384   19387   19388
   19382   19381   19384   19387   19382   19381   19384   19386
   19382   19381   19384   19385   19383   19381   19384   19387
   19383   19381   19384   19386   19383   19381   19384   19385
   19384   19387   19390   19393   19384   19387   19390   19392
   19384   19387   19390   19391   19385   19384   19387   19390
   19385   19384   19387   19389   19385   19384   19387   19388
   19386   19384   19387   19390   19386   19384   19387   19389
   19386   19384   19387   19388   19387   19390   19393   19395
   19387   19390   19393   19394   19388   19387   19390   19393
   19388   19387   19390   19392   19388   19387   19390   19391
   19389   19387   19390   19393   19389   19387   19390   19392
   19389   19387   19390   19391   19390   19393   19395   19397
   19390   19393   19395   19396   19391   19390   19393   19395
   19391   19390   19393   19394   19392   19390   19393   19395
   19392   19390   19393   19394   19393   19395   19397   19400
   19393   19395   19397   19399   19393   19395   19397   19398
   19394   19393   19395   19397   19394   19393   19395   19396
   19395   19397   19400   19403   19395   19397   19400   19402
   19395   19397   19400   19401   19396   19395   19397   19400
   19396   19395   19397   19399   19396   19395   19397   19398
   19397   19400   19403   19406   19397   19400   19403   19405
   19397   19400   19403   19404   19398   19397   19400   19403
   19398   19397   19400   19402   19398   19397   19400   19401
   19399   19397   19400   19403   19399   19397   19400   19402
   19399   19397   19400   19401   19400   19403   19406   19409
   19400   19403   19406   19408   19400   19403   19406   19407
   19401   19400   19403   19406   19401   19400   19403   19405
   19401   19400   19403   19404   19402   19400   19403   19406
   19402   19400   19403   19405   19402   19400   19403   19404
   19403   19406   19409   19412   19403   19406   19409   19411
   19403   19406   19409   19410   19404   19403   19406   19409
   19404   19403   19406   19408   19404   19403   19406   19407
   19405   19403   19406   19409   19405   19403   19406   19408
   19405   19403   19406   19407   19406   19409   19412   19415
   19406   19409   19412   19414   19406   19409   19412   19413
   19407   19406   19409   19412   19407   19406   19409   19411
   19407   19406   19409   19410   19408   19406   19409   19412
   19408   19406   19409   19411   19408   19406   19409   19410
   19409   19412   19415   19418   19409   19412   19415   19417
   19409   19412   19415   19416   19410   19409   19412   19415
   19410   19409   19412   19414   19410   19409   19412   19413
   19411   19409   19412   19415   19411   19409   19412   19414
   19411   19409   19412   19413   19412   19415   19418   19421
   19412   19415   19418   19420   19412   19415   19418   19419
   19413   19412   19415   19418   19413   19412   19415   19417
   19413   19412   19415   19416   19414   19412   19415   19418
   19414   19412   19415   19417   19414   19412   19415   19416
   19416   19415   19418   19421   19416   19415   19418   19420
   19416   19415   19418   19419   19417   19415   19418   19421
   19417   19415   19418   19420   19417   19415   19418   19419
   19422   19425   19428   19431   19422   19425   19428   19430
   19422   19425   19428   19429   19423   19422   19425   19428
   19423   19422   19425   19427   19423   19422   19425   19426
   19424   19422   19425   19428   19424   19422   19425   19427
   19424   19422   19425   19426   19425   19428   19431   19434
   19425   19428   19431   19433   19425   19428   19431   19432
   19426   19425   19428   19431   19426   19425   19428   19430
   19426   19425   19428   19429   19427   19425   19428   19431
   19427   19425   19428   19430   19427   19425   19428   19429
   19428   19431   19434   19437   19428   19431   19434   19436
   19428   19431   19434   19435   19429   19428   19431   19434
   19429   19428   19431   19433   19429   19428   19431   19432
   19430   19428   19431   19434   19430   19428   19431   19433
   19430   19428   19431   19432   19431   19434   19437   19440
   19431   19434   19437   19439   19431   19434   19437   19438
   19432   19431   19434   19437   19432   19431   19434   19436
   19432   19431   19434   19435   19433   19431   19434   19437
   19433   19431   19434   19436   19433   19431   19434   19435
   19434   19437   19440   19443   19434   19437   19440   19442
   19434   19437   19440   19441   19435   19434   19437   19440
   19435   19434   19437   19439   19435   19434   19437   19438
   19436   19434   19437   19440   19436   19434   19437   19439
   19436   19434   19437   19438   19437   19440   19443   19446
   19437   19440   19443   19445   19437   19440   19443   19444
   19438   19437   19440   19443   19438   19437   19440   19442
   19438   19437   19440   19441   19439   19437   19440   19443
   19439   19437   19440   19442   19439   19437   19440   19441
   19440   19443   19446   19449   19440   19443   19446   19448
   19440   19443   19446   19447   19441   19440   19443   19446
   19441   19440   19443   19445   19441   19440   19443   19444
   19442   19440   19443   19446   19442   19440   19443   19445
   19442   19440   19443   19444   19443   19446   19449   19452
   19443   19446   19449   19451   19443   19446   19449   19450
   19444   19443   19446   19449   19444   19443   19446   19448
   19444   19443   19446   19447   19445   19443   19446   19449
   19445   19443   19446   19448   19445   19443   19446   19447
   19446   19449   19452   19455   19446   19449   19452   19454
   19446   19449   19452   19453   19447   19446   19449   19452
   19447   19446   19449   19451   19447   19446   19449   19450
   19448   19446   19449   19452   19448   19446   19449   19451
   19448   19446   19449   19450   19449   19452   19455   19458
   19449   19452   19455   19457   19449   19452   19455   19456
   19450   19449   19452   19455   19450   19449   19452   19454
   19450   19449   19452   19453   19451   19449   19452   19455
   19451   19449   19452   19454   19451   19449   19452   19453
   19452   19455   19458   19461   19452   19455   19458   19460
   19452   19455   19458   19459   19453   19452   19455   19458
   19453   19452   19455   19457   19453   19452   19455   19456
   19454   19452   19455   19458   19454   19452   19455   19457
   19454   19452   19455   19456   19455   19458   19461   19464
   19455   19458   19461   19463   19455   19458   19461   19462
   19456   19455   19458   19461   19456   19455   19458   19460
   19456   19455   19458   19459   19457   19455   19458   19461
   19457   19455   19458   19460   19457   19455   19458   19459
   19459   19458   19461   19464   19459   19458   19461   19463
   19459   19458   19461   19462   19460   19458   19461   19464
   19460   19458   19461   19463   19460   19458   19461   19462
   19465   19469   19472   19479   19465   19469   19472   19474
   19465   19469   19472   19473   19466   19465   19469   19472
   19466   19465   19469   19471   19466   19465   19469   19470
   19467   19465   19469   19472   19467   19465   19469   19471
   19467   19465   19469   19470   19468   19465   19469   19472
   19468   19465   19469   19471   19468   19465   19469   19470
   19469   19472   19479   19475   19470   19469   19472   19479
   19470   19469   19472   19474   19470   19469   19472   19473
   19471   19469   19472   19479   19471   19469   19472   19474
   19471   19469   19472   19473   19477   19475   19479   19472
   19476   19475   19479   19472   19478   19475   19479   19472
   19473   19472   19479   19475   19474   19472   19479   19475
   19475   19478   19480   19483   19475   19478   19480   19482
   19475   19478   19480   19481   19476   19475   19478   19480
   19477   19475   19478   19480   19478   19480   19483   19485
   19478   19480   19483   19491   19478   19480   19483   19484
   19479   19475   19478   19480   19480   19483   19485   19486
   19480   19483   19491   19494   19480   19483   19491   19493
   19480   19483   19491   19492   19481   19480   19483   19485
   19481   19480   19483   19491   19481   19480   19483   19484
   19482   19480   19483   19485   19482   19480   19483   19491
   19482   19480   19483   19484   19483   19485   19486   19487
   19483   19485   19486   19488   19483   19491   19494   19495
   19484   19483   19485   19486   19484   19483   19491   19494
   19484   19483   19491   19493   19484   19483   19491   19492
   19485   19486   19488   19500   19485   19486   19488   19490
   19485   19486   19488   19489   19485   19483   19491   19494
   19485   19483   19491   19493   19485   19483   19491   19492
   19486   19488   19500   19503   19486   19488   19500   19502
   19486   19488   19500   19501   19491   19483   19485   19486
   19487   19486   19488   19500   19487   19486   19488   19490
   19487   19486   19488   19489   19488   19500   19503   19506
   19488   19500   19503   19505   19488   19500   19503   19504
   19489   19488   19500   19503   19489   19488   19500   19502
   19489   19488   19500   19501   19490   19488   19500   19503
   19490   19488   19500   19502   19490   19488   19500   19501
   19491   19494   19495   19496   19491   19494   19495   19497
   19492   19491   19494   19495   19493   19491   19494   19495
   19494   19495   19497   19547   19494   19495   19497   19499
   19494   19495   19497   19498   19495   19497   19547   19550
   19495   19497   19547   19549   19495   19497   19547   19548
   19496   19495   19497   19547   19496   19495   19497   19499
   19496   19495   19497   19498   19497   19547   19550   19553
   19497   19547   19550   19552   19497   19547   19550   19551
   19498   19497   19547   19550   19498   19497   19547   19549
   19498   19497   19547   19548   19499   19497   19547   19550
   19499   19497   19547   19549   19499   19497   19547   19548
   19500   19503   19506   19509   19500   19503   19506   19508
   19500   19503   19506   19507   19501   19500   19503   19506
   19501   19500   19503   19505   19501   19500   19503   19504
   19502   19500   19503   19506   19502   19500   19503   19505
   19502   19500   19503   19504   19503   19506   19509   19512
   19503   19506   19509   19511   19503   19506   19509   19510
   19504   19503   19506   19509   19504   19503   19506   19508
   19504   19503   19506   19507   19505   19503   19506   19509
   19505   19503   19506   19508   19505   19503   19506   19507
   19506   19509   19512   19515   19506   19509   19512   19514
   19506   19509   19512   19513   19507   19506   19509   19512
   19507   19506   19509   19511   19507   19506   19509   19510
   19508   19506   19509   19512   19508   19506   19509   19511
   19508   19506   19509   19510   19509   19512   19515   19518
   19509   19512   19515   19517   19509   19512   19515   19516
   19510   19509   19512   19515   19510   19509   19512   19514
   19510   19509   19512   19513   19511   19509   19512   19515
   19511   19509   19512   19514   19511   19509   19512   19513
   19512   19515   19518   19520   19512   19515   19518   19519
   19513   19512   19515   19518   19513   19512   19515   19517
   19513   19512   19515   19516   19514   19512   19515   19518
   19514   19512   19515   19517   19514   19512   19515   19516
   19515   19518   19520   19522   19515   19518   19520   19521
   19516   19515   19518   19520   19516   19515   19518   19519
   19517   19515   19518   19520   19517   19515   19518   19519
   19518   19520   19522   19525   19518   19520   19522   19524
   19518   19520   19522   19523   19519   19518   19520   19522
   19519   19518   19520   19521   19520   19522   19525   19528
   19520   19522   19525   19527   19520   19522   19525   19526
   19521   19520   19522   19525   19521   19520   19522   19524
   19521   19520   19522   19523   19522   19525   19528   19531
   19522   19525   19528   19530   19522   19525   19528   19529
   19523   19522   19525   19528   19523   19522   19525   19527
   19523   19522   19525   19526   19524   19522   19525   19528
   19524   19522   19525   19527   19524   19522   19525   19526
   19525   19528   19531   19534   19525   19528   19531   19533
   19525   19528   19531   19532   19526   19525   19528   19531
   19526   19525   19528   19530   19526   19525   19528   19529
   19527   19525   19528   19531   19527   19525   19528   19530
   19527   19525   19528   19529   19528   19531   19534   19537
   19528   19531   19534   19536   19528   19531   19534   19535
   19529   19528   19531   19534   19529   19528   19531   19533
   19529   19528   19531   19532   19530   19528   19531   19534
   19530   19528   19531   19533   19530   19528   19531   19532
   19531   19534   19537   19540   19531   19534   19537   19539
   19531   19534   19537   19538   19532   19531   19534   19537
   19532   19531   19534   19536   19532   19531   19534   19535
   19533   19531   19534   19537   19533   19531   19534   19536
   19533   19531   19534   19535   19534   19537   19540   19543
   19534   19537   19540   19542   19534   19537   19540   19541
   19535   19534   19537   19540   19535   19534   19537   19539
   19535   19534   19537   19538   19536   19534   19537   19540
   19536   19534   19537   19539   19536   19534   19537   19538
   19537   19540   19543   19546   19537   19540   19543   19545
   19537   19540   19543   19544   19538   19537   19540   19543
   19538   19537   19540   19542   19538   19537   19540   19541
   19539   19537   19540   19543   19539   19537   19540   19542
   19539   19537   19540   19541   19541   19540   19543   19546
   19541   19540   19543   19545   19541   19540   19543   19544
   19542   19540   19543   19546   19542   19540   19543   19545
   19542   19540   19543   19544   19547   19550   19553   19556
   19547   19550   19553   19555   19547   19550   19553   19554
   19548   19547   19550   19553   19548   19547   19550   19552
   19548   19547   19550   19551   19549   19547   19550   19553
   19549   19547   19550   19552   19549   19547   19550   19551
   19550   19553   19556   19559   19550   19553   19556   19558
   19550   19553   19556   19557   19551   19550   19553   19556
   19551   19550   19553   19555   19551   19550   19553   19554
   19552   19550   19553   19556   19552   19550   19553   19555
   19552   19550   19553   19554   19553   19556   19559   19562
   19553   19556   19559   19561   19553   19556   19559   19560
   19554   19553   19556   19559   19554   19553   19556   19558
   19554   19553   19556   19557   19555   19553   19556   19559
   19555   19553   19556   19558   19555   19553   19556   19557
   19556   19559   19562   19565   19556   19559   19562   19564
   19556   19559   19562   19563   19557   19556   19559   19562
   19557   19556   19559   19561   19557   19556   19559   19560
   19558   19556   19559   19562   19558   19556   19559   19561
   19558   19556   19559   19560   19559   19562   19565   19568
   19559   19562   19565   19567   19559   19562   19565   19566
   19560   19559   19562   19565   19560   19559   19562   19564
   19560   19559   19562   19563   19561   19559   19562   19565
   19561   19559   19562   19564   19561   19559   19562   19563
   19562   19565   19568   19571   19562   19565   19568   19570
   19562   19565   19568   19569   19563   19562   19565   19568
   19563   19562   19565   19567   19563   19562   19565   19566
   19564   19562   19565   19568   19564   19562   19565   19567
   19564   19562   19565   19566   19565   19568   19571   19574
   19565   19568   19571   19573   19565   19568   19571   19572
   19566   19565   19568   19571   19566   19565   19568   19570
   19566   19565   19568   19569   19567   19565   19568   19571
   19567   19565   19568   19570   19567   19565   19568   19569
   19568   19571   19574   19577   19568   19571   19574   19576
   19568   19571   19574   19575   19569   19568   19571   19574
   19569   19568   19571   19573   19569   19568   19571   19572
   19570   19568   19571   19574   19570   19568   19571   19573
   19570   19568   19571   19572   19571   19574   19577   19580
   19571   19574   19577   19579   19571   19574   19577   19578
   19572   19571   19574   19577   19572   19571   19574   19576
   19572   19571   19574   19575   19573   19571   19574   19577
   19573   19571   19574   19576   19573   19571   19574   19575
   19574   19577   19580   19583   19574   19577   19580   19582
   19574   19577   19580   19581   19575   19574   19577   19580
   19575   19574   19577   19579   19575   19574   19577   19578
   19576   19574   19577   19580   19576   19574   19577   19579
   19576   19574   19577   19578   19577   19580   19583   19586
   19577   19580   19583   19585   19577   19580   19583   19584
   19578   19577   19580   19583   19578   19577   19580   19582
   19578   19577   19580   19581   19579   19577   19580   19583
   19579   19577   19580   19582   19579   19577   19580   19581
   19580   19583   19586   19589   19580   19583   19586   19588
   19580   19583   19586   19587   19581   19580   19583   19586
   19581   19580   19583   19585   19581   19580   19583   19584
   19582   19580   19583   19586   19582   19580   19583   19585
   19582   19580   19583   19584   19584   19583   19586   19589
   19584   19583   19586   19588   19584   19583   19586   19587
   19585   19583   19586   19589   19585   19583   19586   19588
   19585   19583   19586   19587   19590   19594   19597   19604
   19590   19594   19597   19599   19590   19594   19597   19598
   19591   19590   19594   19597   19591   19590   19594   19596
   19591   19590   19594   19595   19592   19590   19594   19597
   19592   19590   19594   19596   19592   19590   19594   19595
   19593   19590   19594   19597   19593   19590   19594   19596
   19593   19590   19594   19595   19594   19597   19604   19600
   19595   19594   19597   19604   19595   19594   19597   19599
   19595   19594   19597   19598   19596   19594   19597   19604
   19596   19594   19597   19599   19596   19594   19597   19598
   19602   19600   19604   19597   19601   19600   19604   19597
   19603   19600   19604   19597   19598   19597   19604   19600
   19599   19597   19604   19600   19600   19603   19605   19608
   19600   19603   19605   19607   19600   19603   19605   19606
   19601   19600   19603   19605   19602   19600   19603   19605
   19603   19605   19608   19610   19603   19605   19608   19616
   19603   19605   19608   19609   19604   19600   19603   19605
   19605   19608   19610   19611   19605   19608   19616   19619
   19605   19608   19616   19618   19605   19608   19616   19617
   19606   19605   19608   19610   19606   19605   19608   19616
   19606   19605   19608   19609   19607   19605   19608   19610
   19607   19605   19608   19616   19607   19605   19608   19609
   19608   19610   19611   19612   19608   19610   19611   19613
   19608   19616   19619   19620   19609   19608   19610   19611
   19609   19608   19616   19619   19609   19608   19616   19618
   19609   19608   19616   19617   19610   19611   19613   19625
   19610   19611   19613   19615   19610   19611   19613   19614
   19610   19608   19616   19619   19610   19608   19616   19618
   19610   19608   19616   19617   19611   19613   19625   19628
   19611   19613   19625   19627   19611   19613   19625   19626
   19616   19608   19610   19611   19612   19611   19613   19625
   19612   19611   19613   19615   19612   19611   19613   19614
   19613   19625   19628   19631   19613   19625   19628   19630
   19613   19625   19628   19629   19614   19613   19625   19628
   19614   19613   19625   19627   19614   19613   19625   19626
   19615   19613   19625   19628   19615   19613   19625   19627
   19615   19613   19625   19626   19616   19619   19620   19621
   19616   19619   19620   19622   19617   19616   19619   19620
   19618   19616   19619   19620   19619   19620   19622   19672
   19619   19620   19622   19624   19619   19620   19622   19623
   19620   19622   19672   19675   19620   19622   19672   19674
   19620   19622   19672   19673   19621   19620   19622   19672
   19621   19620   19622   19624   19621   19620   19622   19623
   19622   19672   19675   19678   19622   19672   19675   19677
   19622   19672   19675   19676   19623   19622   19672   19675
   19623   19622   19672   19674   19623   19622   19672   19673
   19624   19622   19672   19675   19624   19622   19672   19674
   19624   19622   19672   19673   19625   19628   19631   19634
   19625   19628   19631   19633   19625   19628   19631   19632
   19626   19625   19628   19631   19626   19625   19628   19630
   19626   19625   19628   19629   19627   19625   19628   19631
   19627   19625   19628   19630   19627   19625   19628   19629
   19628   19631   19634   19637   19628   19631   19634   19636
   19628   19631   19634   19635   19629   19628   19631   19634
   19629   19628   19631   19633   19629   19628   19631   19632
   19630   19628   19631   19634   19630   19628   19631   19633
   19630   19628   19631   19632   19631   19634   19637   19640
   19631   19634   19637   19639   19631   19634   19637   19638
   19632   19631   19634   19637   19632   19631   19634   19636
   19632   19631   19634   19635   19633   19631   19634   19637
   19633   19631   19634   19636   19633   19631   19634   19635
   19634   19637   19640   19643   19634   19637   19640   19642
   19634   19637   19640   19641   19635   19634   19637   19640
   19635   19634   19637   19639   19635   19634   19637   19638
   19636   19634   19637   19640   19636   19634   19637   19639
   19636   19634   19637   19638   19637   19640   19643   19645
   19637   19640   19643   19644   19638   19637   19640   19643
   19638   19637   19640   19642   19638   19637   19640   19641
   19639   19637   19640   19643   19639   19637   19640   19642
   19639   19637   19640   19641   19640   19643   19645   19647
   19640   19643   19645   19646   19641   19640   19643   19645
   19641   19640   19643   19644   19642   19640   19643   19645
   19642   19640   19643   19644   19643   19645   19647   19650
   19643   19645   19647   19649   19643   19645   19647   19648
   19644   19643   19645   19647   19644   19643   19645   19646
   19645   19647   19650   19653   19645   19647   19650   19652
   19645   19647   19650   19651   19646   19645   19647   19650
   19646   19645   19647   19649   19646   19645   19647   19648
   19647   19650   19653   19656   19647   19650   19653   19655
   19647   19650   19653   19654   19648   19647   19650   19653
   19648   19647   19650   19652   19648   19647   19650   19651
   19649   19647   19650   19653   19649   19647   19650   19652
   19649   19647   19650   19651   19650   19653   19656   19659
   19650   19653   19656   19658   19650   19653   19656   19657
   19651   19650   19653   19656   19651   19650   19653   19655
   19651   19650   19653   19654   19652   19650   19653   19656
   19652   19650   19653   19655   19652   19650   19653   19654
   19653   19656   19659   19662   19653   19656   19659   19661
   19653   19656   19659   19660   19654   19653   19656   19659
   19654   19653   19656   19658   19654   19653   19656   19657
   19655   19653   19656   19659   19655   19653   19656   19658
   19655   19653   19656   19657   19656   19659   19662   19665
   19656   19659   19662   19664   19656   19659   19662   19663
   19657   19656   19659   19662   19657   19656   19659   19661
   19657   19656   19659   19660   19658   19656   19659   19662
   19658   19656   19659   19661   19658   19656   19659   19660
   19659   19662   19665   19668   19659   19662   19665   19667
   19659   19662   19665   19666   19660   19659   19662   19665
   19660   19659   19662   19664   19660   19659   19662   19663
   19661   19659   19662   19665   19661   19659   19662   19664
   19661   19659   19662   19663   19662   19665   19668   19671
   19662   19665   19668   19670   19662   19665   19668   19669
   19663   19662   19665   19668   19663   19662   19665   19667
   19663   19662   19665   19666   19664   19662   19665   19668
   19664   19662   19665   19667   19664   19662   19665   19666
   19666   19665   19668   19671   19666   19665   19668   19670
   19666   19665   19668   19669   19667   19665   19668   19671
   19667   19665   19668   19670   19667   19665   19668   19669
   19672   19675   19678   19681   19672   19675   19678   19680
   19672   19675   19678   19679   19673   19672   19675   19678
   19673   19672   19675   19677   19673   19672   19675   19676
   19674   19672   19675   19678   19674   19672   19675   19677
   19674   19672   19675   19676   19675   19678   19681   19684
   19675   19678   19681   19683   19675   19678   19681   19682
   19676   19675   19678   19681   19676   19675   19678   19680
   19676   19675   19678   19679   19677   19675   19678   19681
   19677   19675   19678   19680   19677   19675   19678   19679
   19678   19681   19684   19687   19678   19681   19684   19686
   19678   19681   19684   19685   19679   19678   19681   19684
   19679   19678   19681   19683   19679   19678   19681   19682
   19680   19678   19681   19684   19680   19678   19681   19683
   19680   19678   19681   19682   19681   19684   19687   19690
   19681   19684   19687   19689   19681   19684   19687   19688
   19682   19681   19684   19687   19682   19681   19684   19686
   19682   19681   19684   19685   19683   19681   19684   19687
   19683   19681   19684   19686   19683   19681   19684   19685
   19684   19687   19690   19693   19684   19687   19690   19692
   19684   19687   19690   19691   19685   19684   19687   19690
   19685   19684   19687   19689   19685   19684   19687   19688
   19686   19684   19687   19690   19686   19684   19687   19689
   19686   19684   19687   19688   19687   19690   19693   19696
   19687   19690   19693   19695   19687   19690   19693   19694
   19688   19687   19690   19693   19688   19687   19690   19692
   19688   19687   19690   19691   19689   19687   19690   19693
   19689   19687   19690   19692   19689   19687   19690   19691
   19690   19693   19696   19699   19690   19693   19696   19698
   19690   19693   19696   19697   19691   19690   19693   19696
   19691   19690   19693   19695   19691   19690   19693   19694
   19692   19690   19693   19696   19692   19690   19693   19695
   19692   19690   19693   19694   19693   19696   19699   19702
   19693   19696   19699   19701   19693   19696   19699   19700
   19694   19693   19696   19699   19694   19693   19696   19698
   19694   19693   19696   19697   19695   19693   19696   19699
   19695   19693   19696   19698   19695   19693   19696   19697
   19696   19699   19702   19705   19696   19699   19702   19704
   19696   19699   19702   19703   19697   19696   19699   19702
   19697   19696   19699   19701   19697   19696   19699   19700
   19698   19696   19699   19702   19698   19696   19699   19701
   19698   19696   19699   19700   19699   19702   19705   19708
   19699   19702   19705   19707   19699   19702   19705   19706
   19700   19699   19702   19705   19700   19699   19702   19704
   19700   19699   19702   19703   19701   19699   19702   19705
   19701   19699   19702   19704   19701   19699   19702   19703
   19702   19705   19708   19711   19702   19705   19708   19710
   19702   19705   19708   19709   19703   19702   19705   19708
   19703   19702   19705   19707   19703   19702   19705   19706
   19704   19702   19705   19708   19704   19702   19705   19707
   19704   19702   19705   19706   19705   19708   19711   19714
   19705   19708   19711   19713   19705   19708   19711   19712
   19706   19705   19708   19711   19706   19705   19708   19710
   19706   19705   19708   19709   19707   19705   19708   19711
   19707   19705   19708   19710   19707   19705   19708   19709
   19709   19708   19711   19714   19709   19708   19711   19713
   19709   19708   19711   19712   19710   19708   19711   19714
   19710   19708   19711   19713   19710   19708   19711   19712
   19715   19719   19722   19729   19715   19719   19722   19724
   19715   19719   19722   19723   19716   19715   19719   19722
   19716   19715   19719   19721   19716   19715   19719   19720
   19717   19715   19719   19722   19717   19715   19719   19721
   19717   19715   19719   19720   19718   19715   19719   19722
   19718   19715   19719   19721   19718   19715   19719   19720
   19719   19722   19729   19725   19720   19719   19722   19729
   19720   19719   19722   19724   19720   19719   19722   19723
   19721   19719   19722   19729   19721   19719   19722   19724
   19721   19719   19722   19723   19727   19725   19729   19722
   19726   19725   19729   19722   19728   19725   19729   19722
   19723   19722   19729   19725   19724   19722   19729   19725
   19725   19728   19730   19733   19725   19728   19730   19732
   19725   19728   19730   19731   19726   19725   19728   19730
   19727   19725   19728   19730   19728   19730   19733   19735
   19728   19730   19733   19741   19728   19730   19733   19734
   19729   19725   19728   19730   19730   19733   19735   19736
   19730   19733   19741   19744   19730   19733   19741   19743
   19730   19733   19741   19742   19731   19730   19733   19735
   19731   19730   19733   19741   19731   19730   19733   19734
   19732   19730   19733   19735   19732   19730   19733   19741
   19732   19730   19733   19734   19733   19735   19736   19737
   19733   19735   19736   19738   19733   19741   19744   19745
   19734   19733   19735   19736   19734   19733   19741   19744
   19734   19733   19741   19743   19734   19733   19741   19742
   19735   19736   19738   19750   19735   19736   19738   19740
   19735   19736   19738   19739   19735   19733   19741   19744
   19735   19733   19741   19743   19735   19733   19741   19742
   19736   19738   19750   19753   19736   19738   19750   19752
   19736   19738   19750   19751   19741   19733   19735   19736
   19737   19736   19738   19750   19737   19736   19738   19740
   19737   19736   19738   19739   19738   19750   19753   19756
   19738   19750   19753   19755   19738   19750   19753   19754
   19739   19738   19750   19753   19739   19738   19750   19752
   19739   19738   19750   19751   19740   19738   19750   19753
   19740   19738   19750   19752   19740   19738   19750   19751
   19741   19744   19745   19746   19741   19744   19745   19747
   19742   19741   19744   19745   19743   19741   19744   19745
   19744   19745   19747   19797   19744   19745   19747   19749
   19744   19745   19747   19748   19745   19747   19797   19800
   19745   19747   19797   19799   19745   19747   19797   19798
   19746   19745   19747   19797   19746   19745   19747   19749
   19746   19745   19747   19748   19747   19797   19800   19803
   19747   19797   19800   19802   19747   19797   19800   19801
   19748   19747   19797   19800   19748   19747   19797   19799
   19748   19747   19797   19798   19749   19747   19797   19800
   19749   19747   19797   19799   19749   19747   19797   19798
   19750   19753   19756   19759   19750   19753   19756   19758
   19750   19753   19756   19757   19751   19750   19753   19756
   19751   19750   19753   19755   19751   19750   19753   19754
   19752   19750   19753   19756   19752   19750   19753   19755
   19752   19750   19753   19754   19753   19756   19759   19762
   19753   19756   19759   19761   19753   19756   19759   19760
   19754   19753   19756   19759   19754   19753   19756   19758
   19754   19753   19756   19757   19755   19753   19756   19759
   19755   19753   19756   19758   19755   19753   19756   19757
   19756   19759   19762   19765   19756   19759   19762   19764
   19756   19759   19762   19763   19757   19756   19759   19762
   19757   19756   19759   19761   19757   19756   19759   19760
   19758   19756   19759   19762   19758   19756   19759   19761
   19758   19756   19759   19760   19759   19762   19765   19768
   19759   19762   19765   19767   19759   19762   19765   19766
   19760   19759   19762   19765   19760   19759   19762   19764
   19760   19759   19762   19763   19761   19759   19762   19765
   19761   19759   19762   19764   19761   19759   19762   19763
   19762   19765   19768   19770   19762   19765   19768   19769
   19763   19762   19765   19768   19763   19762   19765   19767
   19763   19762   19765   19766   19764   19762   19765   19768
   19764   19762   19765   19767   19764   19762   19765   19766
   19765   19768   19770   19772   19765   19768   19770   19771
   19766   19765   19768   19770   19766   19765   19768   19769
   19767   19765   19768   19770   19767   19765   19768   19769
   19768   19770   19772   19775   19768   19770   19772   19774
   19768   19770   19772   19773   19769   19768   19770   19772
   19769   19768   19770   19771   19770   19772   19775   19778
   19770   19772   19775   19777   19770   19772   19775   19776
   19771   19770   19772   19775   19771   19770   19772   19774
   19771   19770   19772   19773   19772   19775   19778   19781
   19772   19775   19778   19780   19772   19775   19778   19779
   19773   19772   19775   19778   19773   19772   19775   19777
   19773   19772   19775   19776   19774   19772   19775   19778
   19774   19772   19775   19777   19774   19772   19775   19776
   19775   19778   19781   19784   19775   19778   19781   19783
   19775   19778   19781   19782   19776   19775   19778   19781
   19776   19775   19778   19780   19776   19775   19778   19779
   19777   19775   19778   19781   19777   19775   19778   19780
   19777   19775   19778   19779   19778   19781   19784   19787
   19778   19781   19784   19786   19778   19781   19784   19785
   19779   19778   19781   19784   19779   19778   19781   19783
   19779   19778   19781   19782   19780   19778   19781   19784
   19780   19778   19781   19783   19780   19778   19781   19782
   19781   19784   19787   19790   19781   19784   19787   19789
   19781   19784   19787   19788   19782   19781   19784   19787
   19782   19781   19784   19786   19782   19781   19784   19785
   19783   19781   19784   19787   19783   19781   19784   19786
   19783   19781   19784   19785   19784   19787   19790   19793
   19784   19787   19790   19792   19784   19787   19790   19791
   19785   19784   19787   19790   19785   19784   19787   19789
   19785   19784   19787   19788   19786   19784   19787   19790
   19786   19784   19787   19789   19786   19784   19787   19788
   19787   19790   19793   19796   19787   19790   19793   19795
   19787   19790   19793   19794   19788   19787   19790   19793
   19788   19787   19790   19792   19788   19787   19790   19791
   19789   19787   19790   19793   19789   19787   19790   19792
   19789   19787   19790   19791   19791   19790   19793   19796
   19791   19790   19793   19795   19791   19790   19793   19794
   19792   19790   19793   19796   19792   19790   19793   19795
   19792   19790   19793   19794   19797   19800   19803   19806
   19797   19800   19803   19805   19797   19800   19803   19804
   19798   19797   19800   19803   19798   19797   19800   19802
   19798   19797   19800   19801   19799   19797   19800   19803
   19799   19797   19800   19802   19799   19797   19800   19801
   19800   19803   19806   19809   19800   19803   19806   19808
   19800   19803   19806   19807   19801   19800   19803   19806
   19801   19800   19803   19805   19801   19800   19803   19804
   19802   19800   19803   19806   19802   19800   19803   19805
   19802   19800   19803   19804   19803   19806   19809   19812
   19803   19806   19809   19811   19803   19806   19809   19810
   19804   19803   19806   19809   19804   19803   19806   19808
   19804   19803   19806   19807   19805   19803   19806   19809
   19805   19803   19806   19808   19805   19803   19806   19807
   19806   19809   19812   19815   19806   19809   19812   19814
   19806   19809   19812   19813   19807   19806   19809   19812
   19807   19806   19809   19811   19807   19806   19809   19810
   19808   19806   19809   19812   19808   19806   19809   19811
   19808   19806   19809   19810   19809   19812   19815   19818
   19809   19812   19815   19817   19809   19812   19815   19816
   19810   19809   19812   19815   19810   19809   19812   19814
   19810   19809   19812   19813   19811   19809   19812   19815
   19811   19809   19812   19814   19811   19809   19812   19813
   19812   19815   19818   19821   19812   19815   19818   19820
   19812   19815   19818   19819   19813   19812   19815   19818
   19813   19812   19815   19817   19813   19812   19815   19816
   19814   19812   19815   19818   19814   19812   19815   19817
   19814   19812   19815   19816   19815   19818   19821   19824
   19815   19818   19821   19823   19815   19818   19821   19822
   19816   19815   19818   19821   19816   19815   19818   19820
   19816   19815   19818   19819   19817   19815   19818   19821
   19817   19815   19818   19820   19817   19815   19818   19819
   19818   19821   19824   19827   19818   19821   19824   19826
   19818   19821   19824   19825   19819   19818   19821   19824
   19819   19818   19821   19823   19819   19818   19821   19822
   19820   19818   19821   19824   19820   19818   19821   19823
   19820   19818   19821   19822   19821   19824   19827   19830
   19821   19824   19827   19829   19821   19824   19827   19828
   19822   19821   19824   19827   19822   19821   19824   19826
   19822   19821   19824   19825   19823   19821   19824   19827
   19823   19821   19824   19826   19823   19821   19824   19825
   19824   19827   19830   19833   19824   19827   19830   19832
   19824   19827   19830   19831   19825   19824   19827   19830
   19825   19824   19827   19829   19825   19824   19827   19828
   19826   19824   19827   19830   19826   19824   19827   19829
   19826   19824   19827   19828   19827   19830   19833   19836
   19827   19830   19833   19835   19827   19830   19833   19834
   19828   19827   19830   19833   19828   19827   19830   19832
   19828   19827   19830   19831   19829   19827   19830   19833
   19829   19827   19830   19832   19829   19827   19830   19831
   19830   19833   19836   19839   19830   19833   19836   19838
   19830   19833   19836   19837   19831   19830   19833   19836
   19831   19830   19833   19835   19831   19830   19833   19834
   19832   19830   19833   19836   19832   19830   19833   19835
   19832   19830   19833   19834   19834   19833   19836   19839
   19834   19833   19836   19838   19834   19833   19836   19837
   19835   19833   19836   19839   19835   19833   19836   19838
   19835   19833   19836   19837   19840   19853   19856   19858
   19840   19853   19856   19857   19840   19853   19856   19863
   19841   19840   19845   19848   19841   19840   19845   19847
   19841   19840   19845   19846   19841   19840   19849   19852
   19841   19840   19849   19851   19841   19840   19849   19850
   19841   19840   19853   19855   19841   19840   19853   19854
   19841   19840   19853   19856   19845   19840   19841   19842
   19849   19840   19841   19842   19853   19840   19841   19842
   19845   19840   19841   19843   19849   19840   19841   19843
   19853   19840   19841   19843   19845   19840   19841   19844
   19849   19840   19841   19844   19853   19840   19841   19844
   19845   19840   19849   19852   19845   19840   19849   19851
   19845   19840   19849   19850   19845   19840   19853   19855
   19845   19840   19853   19854   19845   19840   19853   19856
   19849   19840   19845   19846   19853   19840   19845   19846
   19849   19840   19845   19847   19853   19840   19845   19847
   19849   19840   19845   19848   19853   19840   19845   19848
   19849   19840   19853   19855   19849   19840   19853   19854
   19849   19840   19853   19856   19853   19840   19849   19850
   19853   19840   19849   19851   19853   19840   19849   19852
   19853   19856   19863   19859   19854   19853   19856   19858
   19854   19853   19856   19857   19854   19853   19856   19863
   19855   19853   19856   19858   19855   19853   19856   19857
   19855   19853   19856   19863   19861   19859   19863   19856
   19860   19859   19863   19856   19862   19859   19863   19856
   19857   19856   19863   19859   19858   19856   19863   19859
   19859   19862   19864   19866   19859   19862   19864   19865
   19859   19862   19864   19869   19860   19859   19862   19864
   19861   19859   19862   19864   19862   19864   19869   19867
   19862   19864   19869   19870   19862   19864   19869   19871
   19863   19859   19862   19864   19919   19867   19869   19864
   19868   19867   19869   19864   19864   19869   19871   19873
   19864   19869   19871   19872   19864   19869   19871   19875
   19865   19864   19869   19867   19865   19864   19869   19870
   19865   19864   19869   19871   19866   19864   19869   19867
   19866   19864   19869   19870   19866   19864   19869   19871
   19867   19919   19921   19924   19867   19919   19921   19923
   19867   19919   19921   19922   19867   19869   19871   19873
   19867   19869   19871   19872   19867   19869   19871   19875
   19868   19867   19919   19920   19868   19867   19919   19921
   19868   19867   19869   19870   19868   19867   19869   19871
   19869   19867   19919   19920   19869   19867   19919   19921
   19869   19871   19873   19874   19869   19871   19875   19877
   19869   19871   19875   19876   19919   19867   19869   19870
   19870   19869   19871   19873   19870   19869   19871   19872
   19870   19869   19871   19875   19919   19867   19869   19871
   19871   19875   19877   19878   19871   19875   19877   19879
   19872   19871   19873   19874   19872   19871   19875   19877
   19872   19871   19875   19876   19873   19871   19875   19877
   19873   19871   19875   19876   19875   19871   19873   19874
   19875   19877   19879   19881   19875   19877   19879   19880
   19875   19877   19879   19882   19876   19875   19877   19878
   19876   19875   19877   19879   19877   19879   19882   19884
   19877   19879   19882   19883   19877   19879   19882   19885
   19878   19877   19879   19881   19878   19877   19879   19880
   19878   19877   19879   19882   19879   19882   19885   19887
   19879   19882   19885   19886   19879   19882   19885   19888
   19880   19879   19882   19884   19880   19879   19882   19883
   19880   19879   19882   19885   19881   19879   19882   19884
   19881   19879   19882   19883   19881   19879   19882   19885
   19882   19885   19888   19890   19882   19885   19888   19889
   19882   19885   19888   19891   19883   19882   19885   19887
   19883   19882   19885   19886   19883   19882   19885   19888
   19884   19882   19885   19887   19884   19882   19885   19886
   19884   19882   19885   19888   19885   19888   19891   19893
   19885   19888   19891   19892   19885   19888   19891   19894
   19886   19885   19888   19890   19886   19885   19888   19889
   19886   19885   19888   19891   19887   19885   19888   19890
   19887   19885   19888   19889   19887   19885   19888   19891
   19888   19891   19894   19896   19888   19891   19894   19895
   19888   19891   19894   19897   19889   19888   19891   19893
   19889   19888   19891   19892   19889   19888   19891   19894
   19890   19888   19891   19893   19890   19888   19891   19892
   19890   19888   19891   19894   19891   19894   19897   19899
   19891   19894   19897   19898   19891   19894   19897   19900
   19892   19891   19894   19896   19892   19891   19894   19895
   19892   19891   19894   19897   19893   19891   19894   19896
   19893   19891   19894   19895   19893   19891   19894   19897
   19894   19897   19900   19902   19894   19897   19900   19901
   19894   19897   19900   19903   19895   19894   19897   19899
   19895   19894   19897   19898   19895   19894   19897   19900
   19896   19894   19897   19899   19896   19894   19897   19898
   19896   19894   19897   19900   19897   19900   19903   19905
   19897   19900   19903   19904   19897   19900   19903   19906
   19898   19897   19900   19902   19898   19897   19900   19901
   19898   19897   19900   19903   19899   19897   19900   19902
   19899   19897   19900   19901   19899   19897   19900   19903
   19900   19903   19906   19908   19900   19903   19906   19907
   19900   19903   19906   19909   19901   19900   19903   19905
   19901   19900   19903   19904   19901   19900   19903   19906
   19902   19900   19903   19905   19902   19900   19903   19904
   19902   19900   19903   19906   19903   19906   19909   19911
   19903   19906   19909   19910   19903   19906   19909   19912
   19904   19903   19906   19908   19904   19903   19906   19907
   19904   19903   19906   19909   19905   19903   19906   19908
   19905   19903   19906   19907   19905   19903   19906   19909
   19906   19909   19912   19914   19906   19909   19912   19913
   19906   19909   19912   19915   19907   19906   19909   19911
   19907   19906   19909   19910   19907   19906   19909   19912
   19908   19906   19909   19911   19908   19906   19909   19910
   19908   19906   19909   19912   19909   19912   19915   19918
   19909   19912   19915   19917   19909   19912   19915   19916
   19910   19909   19912   19914   19910   19909   19912   19913
   19910   19909   19912   19915   19911   19909   19912   19914
   19911   19909   19912   19913   19911   19909   19912   19915
   19913   19912   19915   19918   19913   19912   19915   19917
   19913   19912   19915   19916   19914   19912   19915   19918
   19914   19912   19915   19917   19914   19912   19915   19916
   19919   19921   19924   19927   19919   19921   19924   19926
   19919   19921   19924   19925   19920   19919   19921   19924
   19920   19919   19921   19923   19920   19919   19921   19922
   19921   19924   19927   19930   19921   19924   19927   19929
   19921   19924   19927   19928   19922   19921   19924   19927
   19922   19921   19924   19926   19922   19921   19924   19925
   19923   19921   19924   19927   19923   19921   19924   19926
   19923   19921   19924   19925   19924   19927   19930   19933
   19924   19927   19930   19932   19924   19927   19930   19931
   19925   19924   19927   19930   19925   19924   19927   19929
   19925   19924   19927   19928   19926   19924   19927   19930
   19926   19924   19927   19929   19926   19924   19927   19928
   19927   19930   19933   19936   19927   19930   19933   19935
   19927   19930   19933   19934   19928   19927   19930   19933
   19928   19927   19930   19932   19928   19927   19930   19931
   19929   19927   19930   19933   19929   19927   19930   19932
   19929   19927   19930   19931   19930   19933   19936   19939
   19930   19933   19936   19938   19930   19933   19936   19937
   19931   19930   19933   19936   19931   19930   19933   19935
   19931   19930   19933   19934   19932   19930   19933   19936
   19932   19930   19933   19935   19932   19930   19933   19934
   19933   19936   19939   19942   19933   19936   19939   19941
   19933   19936   19939   19940   19934   19933   19936   19939
   19934   19933   19936   19938   19934   19933   19936   19937
   19935   19933   19936   19939   19935   19933   19936   19938
   19935   19933   19936   19937   19936   19939   19942   19945
   19936   19939   19942   19944   19936   19939   19942   19943
   19937   19936   19939   19942   19937   19936   19939   19941
   19937   19936   19939   19940   19938   19936   19939   19942
   19938   19936   19939   19941   19938   19936   19939   19940
   19939   19942   19945   19948   19939   19942   19945   19947
   19939   19942   19945   19946   19940   19939   19942   19945
   19940   19939   19942   19944   19940   19939   19942   19943
   19941   19939   19942   19945   19941   19939   19942   19944
   19941   19939   19942   19943   19942   19945   19948   19951
   19942   19945   19948   19950   19942   19945   19948   19949
   19943   19942   19945   19948   19943   19942   19945   19947
   19943   19942   19945   19946   19944   19942   19945   19948
   19944   19942   19945   19947   19944   19942   19945   19946
   19945   19948   19951   19954   19945   19948   19951   19953
   19945   19948   19951   19952   19946   19945   19948   19951
   19946   19945   19948   19950   19946   19945   19948   19949
   19947   19945   19948   19951   19947   19945   19948   19950
   19947   19945   19948   19949   19948   19951   19954   19957
   19948   19951   19954   19956   19948   19951   19954   19955
   19949   19948   19951   19954   19949   19948   19951   19953
   19949   19948   19951   19952   19950   19948   19951   19954
   19950   19948   19951   19953   19950   19948   19951   19952
   19951   19954   19957   19960   19951   19954   19957   19959
   19951   19954   19957   19958   19952   19951   19954   19957
   19952   19951   19954   19956   19952   19951   19954   19955
   19953   19951   19954   19957   19953   19951   19954   19956
   19953   19951   19954   19955   19954   19957   19960   19963
   19954   19957   19960   19962   19954   19957   19960   19961
   19955   19954   19957   19960   19955   19954   19957   19959
   19955   19954   19957   19958   19956   19954   19957   19960
   19956   19954   19957   19959   19956   19954   19957   19958
   19957   19960   19963   19966   19957   19960   19963   19965
   19957   19960   19963   19964   19958   19957   19960   19963
   19958   19957   19960   19962   19958   19957   19960   19961
   19959   19957   19960   19963   19959   19957   19960   19962
   19959   19957   19960   19961   19961   19960   19963   19966
   19961   19960   19963   19965   19961   19960   19963   19964
   19962   19960   19963   19966   19962   19960   19963   19965
   19962   19960   19963   19964   19967   19980   19983   19985
   19967   19980   19983   19984   19967   19980   19983   19990
   19968   19967   19972   19975   19968   19967   19972   19974
   19968   19967   19972   19973   19968   19967   19976   19979
   19968   19967   19976   19978   19968   19967   19976   19977
   19968   19967   19980   19982   19968   19967   19980   19981
   19968   19967   19980   19983   19972   19967   19968   19969
   19976   19967   19968   19969   19980   19967   19968   19969
   19972   19967   19968   19970   19976   19967   19968   19970
   19980   19967   19968   19970   19972   19967   19968   19971
   19976   19967   19968   19971   19980   19967   19968   19971
   19972   19967   19976   19979   19972   19967   19976   19978
   19972   19967   19976   19977   19972   19967   19980   19982
   19972   19967   19980   19981   19972   19967   19980   19983
   19976   19967   19972   19973   19980   19967   19972   19973
   19976   19967   19972   19974   19980   19967   19972   19974
   19976   19967   19972   19975   19980   19967   19972   19975
   19976   19967   19980   19982   19976   19967   19980   19981
   19976   19967   19980   19983   19980   19967   19976   19977
   19980   19967   19976   19978   19980   19967   19976   19979
   19980   19983   19990   19986   19981   19980   19983   19985
   19981   19980   19983   19984   19981   19980   19983   19990
   19982   19980   19983   19985   19982   19980   19983   19984
   19982   19980   19983   19990   19988   19986   19990   19983
   19987   19986   19990   19983   19989   19986   19990   19983
   19984   19983   19990   19986   19985   19983   19990   19986
   19986   19989   19991   19993   19986   19989   19991   19992
   19986   19989   19991   19996   19987   19986   19989   19991
   19988   19986   19989   19991   19989   19991   19996   19994
   19989   19991   19996   19997   19989   19991   19996   19998
   19990   19986   19989   19991   20046   19994   19996   19991
   19995   19994   19996   19991   19991   19996   19998   20000
   19991   19996   19998   19999   19991   19996   19998   20002
   19992   19991   19996   19994   19992   19991   19996   19997
   19992   19991   19996   19998   19993   19991   19996   19994
   19993   19991   19996   19997   19993   19991   19996   19998
   19994   20046   20048   20051   19994   20046   20048   20050
   19994   20046   20048   20049   19994   19996   19998   20000
   19994   19996   19998   19999   19994   19996   19998   20002
   19995   19994   20046   20047   19995   19994   20046   20048
   19995   19994   19996   19997   19995   19994   19996   19998
   19996   19994   20046   20047   19996   19994   20046   20048
   19996   19998   20000   20001   19996   19998   20002   20004
   19996   19998   20002   20003   20046   19994   19996   19997
   19997   19996   19998   20000   19997   19996   19998   19999
   19997   19996   19998   20002   20046   19994   19996   19998
   19998   20002   20004   20005   19998   20002   20004   20006
   19999   19998   20000   20001   19999   19998   20002   20004
   19999   19998   20002   20003   20000   19998   20002   20004
   20000   19998   20002   20003   20002   19998   20000   20001
   20002   20004   20006   20008   20002   20004   20006   20007
   20002   20004   20006   20009   20003   20002   20004   20005
   20003   20002   20004   20006   20004   20006   20009   20011
   20004   20006   20009   20010   20004   20006   20009   20012
   20005   20004   20006   20008   20005   20004   20006   20007
   20005   20004   20006   20009   20006   20009   20012   20014
   20006   20009   20012   20013   20006   20009   20012   20015
   20007   20006   20009   20011   20007   20006   20009   20010
   20007   20006   20009   20012   20008   20006   20009   20011
   20008   20006   20009   20010   20008   20006   20009   20012
   20009   20012   20015   20017   20009   20012   20015   20016
   20009   20012   20015   20018   20010   20009   20012   20014
   20010   20009   20012   20013   20010   20009   20012   20015
   20011   20009   20012   20014   20011   20009   20012   20013
   20011   20009   20012   20015   20012   20015   20018   20020
   20012   20015   20018   20019   20012   20015   20018   20021
   20013   20012   20015   20017   20013   20012   20015   20016
   20013   20012   20015   20018   20014   20012   20015   20017
   20014   20012   20015   20016   20014   20012   20015   20018
   20015   20018   20021   20023   20015   20018   20021   20022
   20015   20018   20021   20024   20016   20015   20018   20020
   20016   20015   20018   20019   20016   20015   20018   20021
   20017   20015   20018   20020   20017   20015   20018   20019
   20017   20015   20018   20021   20018   20021   20024   20026
   20018   20021   20024   20025   20018   20021   20024   20027
   20019   20018   20021   20023   20019   20018   20021   20022
   20019   20018   20021   20024   20020   20018   20021   20023
   20020   20018   20021   20022   20020   20018   20021   20024
   20021   20024   20027   20029   20021   20024   20027   20028
   20021   20024   20027   20030   20022   20021   20024   20026
   20022   20021   20024   20025   20022   20021   20024   20027
   20023   20021   20024   20026   20023   20021   20024   20025
   20023   20021   20024   20027   20024   20027   20030   20032
   20024   20027   20030   20031   20024   20027   20030   20033
   20025   20024   20027   20029   20025   20024   20027   20028
   20025   20024   20027   20030   20026   20024   20027   20029
   20026   20024   20027   20028   20026   20024   20027   20030
   20027   20030   20033   20035   20027   20030   20033   20034
   20027   20030   20033   20036   20028   20027   20030   20032
   20028   20027   20030   20031   20028   20027   20030   20033
   20029   20027   20030   20032   20029   20027   20030   20031
   20029   20027   20030   20033   20030   20033   20036   20038
   20030   20033   20036   20037   20030   20033   20036   20039
   20031   20030   20033   20035   20031   20030   20033   20034
   20031   20030   20033   20036   20032   20030   20033   20035
   20032   20030   20033   20034   20032   20030   20033   20036
   20033   20036   20039   20041   20033   20036   20039   20040
   20033   20036   20039   20042   20034   20033   20036   20038
   20034   20033   20036   20037   20034   20033   20036   20039
   20035   20033   20036   20038   20035   20033   20036   20037
   20035   20033   20036   20039   20036   20039   20042   20045
   20036   20039   20042   20044   20036   20039   20042   20043
   20037   20036   20039   20041   20037   20036   20039   20040
   20037   20036   20039   20042   20038   20036   20039   20041
   20038   20036   20039   20040   20038   20036   20039   20042
   20040   20039   20042   20045   20040   20039   20042   20044
   20040   20039   20042   20043   20041   20039   20042   20045
   20041   20039   20042   20044   20041   20039   20042   20043
   20046   20048   20051   20054   20046   20048   20051   20053
   20046   20048   20051   20052   20047   20046   20048   20051
   20047   20046   20048   20050   20047   20046   20048   20049
   20048   20051   20054   20057   20048   20051   20054   20056
   20048   20051   20054   20055   20049   20048   20051   20054
   20049   20048   20051   20053   20049   20048   20051   20052
   20050   20048   20051   20054   20050   20048   20051   20053
   20050   20048   20051   20052   20051   20054   20057   20060
   20051   20054   20057   20059   20051   20054   20057   20058
   20052   20051   20054   20057   20052   20051   20054   20056
   20052   20051   20054   20055   20053   20051   20054   20057
   20053   20051   20054   20056   20053   20051   20054   20055
   20054   20057   20060   20063   20054   20057   20060   20062
   20054   20057   20060   20061   20055   20054   20057   20060
   20055   20054   20057   20059   20055   20054   20057   20058
   20056   20054   20057   20060   20056   20054   20057   20059
   20056   20054   20057   20058   20057   20060   20063   20066
   20057   20060   20063   20065   20057   20060   20063   20064
   20058   20057   20060   20063   20058   20057   20060   20062
   20058   20057   20060   20061   20059   20057   20060   20063
   20059   20057   20060   20062   20059   20057   20060   20061
   20060   20063   20066   20069   20060   20063   20066   20068
   20060   20063   20066   20067   20061   20060   20063   20066
   20061   20060   20063   20065   20061   20060   20063   20064
   20062   20060   20063   20066   20062   20060   20063   20065
   20062   20060   20063   20064   20063   20066   20069   20072
   20063   20066   20069   20071   20063   20066   20069   20070
   20064   20063   20066   20069   20064   20063   20066   20068
   20064   20063   20066   20067   20065   20063   20066   20069
   20065   20063   20066   20068   20065   20063   20066   20067
   20066   20069   20072   20075   20066   20069   20072   20074
   20066   20069   20072   20073   20067   20066   20069   20072
   20067   20066   20069   20071   20067   20066   20069   20070
   20068   20066   20069   20072   20068   20066   20069   20071
   20068   20066   20069   20070   20069   20072   20075   20078
   20069   20072   20075   20077   20069   20072   20075   20076
   20070   20069   20072   20075   20070   20069   20072   20074
   20070   20069   20072   20073   20071   20069   20072   20075
   20071   20069   20072   20074   20071   20069   20072   20073
   20072   20075   20078   20081   20072   20075   20078   20080
   20072   20075   20078   20079   20073   20072   20075   20078
   20073   20072   20075   20077   20073   20072   20075   20076
   20074   20072   20075   20078   20074   20072   20075   20077
   20074   20072   20075   20076   20075   20078   20081   20084
   20075   20078   20081   20083   20075   20078   20081   20082
   20076   20075   20078   20081   20076   20075   20078   20080
   20076   20075   20078   20079   20077   20075   20078   20081
   20077   20075   20078   20080   20077   20075   20078   20079
   20078   20081   20084   20087   20078   20081   20084   20086
   20078   20081   20084   20085   20079   20078   20081   20084
   20079   20078   20081   20083   20079   20078   20081   20082
   20080   20078   20081   20084   20080   20078   20081   20083
   20080   20078   20081   20082   20081   20084   20087   20090
   20081   20084   20087   20089   20081   20084   20087   20088
   20082   20081   20084   20087   20082   20081   20084   20086
   20082   20081   20084   20085   20083   20081   20084   20087
   20083   20081   20084   20086   20083   20081   20084   20085
   20084   20087   20090   20093   20084   20087   20090   20092
   20084   20087   20090   20091   20085   20084   20087   20090
   20085   20084   20087   20089   20085   20084   20087   20088
   20086   20084   20087   20090   20086   20084   20087   20089
   20086   20084   20087   20088   20088   20087   20090   20093
   20088   20087   20090   20092   20088   20087   20090   20091
   20089   20087   20090   20093   20089   20087   20090   20092
   20089   20087   20090   20091   20094   20098   20101   20108
   20094   20098   20101   20103   20094   20098   20101   20102
   20095   20094   20098   20101   20095   20094   20098   20100
   20095   20094   20098   20099   20096   20094   20098   20101
   20096   20094   20098   20100   20096   20094   20098   20099
   20097   20094   20098   20101   20097   20094   20098   20100
   20097   20094   20098   20099   20098   20101   20108   20104
   20099   20098   20101   20108   20099   20098   20101   20103
   20099   20098   20101   20102   20100   20098   20101   20108
   20100   20098   20101   20103   20100   20098   20101   20102
   20106   20104   20108   20101   20105   20104   20108   20101
   20107   20104   20108   20101   20102   20101   20108   20104
   20103   20101   20108   20104   20104   20107   20109   20112
   20104   20107   20109   20111   20104   20107   20109   20110
   20105   20104   20107   20109   20106   20104   20107   20109
   20107   20109   20112   20114   20107   20109   20112   20120
   20107   20109   20112   20113   20108   20104   20107   20109
   20109   20112   20114   20115   20109   20112   20120   20123
   20109   20112   20120   20122   20109   20112   20120   20121
   20110   20109   20112   20114   20110   20109   20112   20120
   20110   20109   20112   20113   20111   20109   20112   20114
   20111   20109   20112   20120   20111   20109   20112   20113
   20112   20114   20115   20116   20112   20114   20115   20117
   20112   20120   20123   20124   20113   20112   20114   20115
   20113   20112   20120   20123   20113   20112   20120   20122
   20113   20112   20120   20121   20114   20115   20117   20129
   20114   20115   20117   20119   20114   20115   20117   20118
   20114   20112   20120   20123   20114   20112   20120   20122
   20114   20112   20120   20121   20115   20117   20129   20132
   20115   20117   20129   20131   20115   20117   20129   20130
   20120   20112   20114   20115   20116   20115   20117   20129
   20116   20115   20117   20119   20116   20115   20117   20118
   20117   20129   20132   20135   20117   20129   20132   20134
   20117   20129   20132   20133   20118   20117   20129   20132
   20118   20117   20129   20131   20118   20117   20129   20130
   20119   20117   20129   20132   20119   20117   20129   20131
   20119   20117   20129   20130   20120   20123   20124   20125
   20120   20123   20124   20126   20121   20120   20123   20124
   20122   20120   20123   20124   20123   20124   20126   20176
   20123   20124   20126   20128   20123   20124   20126   20127
   20124   20126   20176   20179   20124   20126   20176   20178
   20124   20126   20176   20177   20125   20124   20126   20176
   20125   20124   20126   20128   20125   20124   20126   20127
   20126   20176   20179   20182   20126   20176   20179   20181
   20126   20176   20179   20180   20127   20126   20176   20179
   20127   20126   20176   20178   20127   20126   20176   20177
   20128   20126   20176   20179   20128   20126   20176   20178
   20128   20126   20176   20177   20129   20132   20135   20138
   20129   20132   20135   20137   20129   20132   20135   20136
   20130   20129   20132   20135   20130   20129   20132   20134
   20130   20129   20132   20133   20131   20129   20132   20135
   20131   20129   20132   20134   20131   20129   20132   20133
   20132   20135   20138   20141   20132   20135   20138   20140
   20132   20135   20138   20139   20133   20132   20135   20138
   20133   20132   20135   20137   20133   20132   20135   20136
   20134   20132   20135   20138   20134   20132   20135   20137
   20134   20132   20135   20136   20135   20138   20141   20144
   20135   20138   20141   20143   20135   20138   20141   20142
   20136   20135   20138   20141   20136   20135   20138   20140
   20136   20135   20138   20139   20137   20135   20138   20141
   20137   20135   20138   20140   20137   20135   20138   20139
   20138   20141   20144   20147   20138   20141   20144   20146
   20138   20141   20144   20145   20139   20138   20141   20144
   20139   20138   20141   20143   20139   20138   20141   20142
   20140   20138   20141   20144   20140   20138   20141   20143
   20140   20138   20141   20142   20141   20144   20147   20149
   20141   20144   20147   20148   20142   20141   20144   20147
   20142   20141   20144   20146   20142   20141   20144   20145
   20143   20141   20144   20147   20143   20141   20144   20146
   20143   20141   20144   20145   20144   20147   20149   20151
   20144   20147   20149   20150   20145   20144   20147   20149
   20145   20144   20147   20148   20146   20144   20147   20149
   20146   20144   20147   20148   20147   20149   20151   20154
   20147   20149   20151   20153   20147   20149   20151   20152
   20148   20147   20149   20151   20148   20147   20149   20150
   20149   20151   20154   20157   20149   20151   20154   20156
   20149   20151   20154   20155   20150   20149   20151   20154
   20150   20149   20151   20153   20150   20149   20151   20152
   20151   20154   20157   20160   20151   20154   20157   20159
   20151   20154   20157   20158   20152   20151   20154   20157
   20152   20151   20154   20156   20152   20151   20154   20155
   20153   20151   20154   20157   20153   20151   20154   20156
   20153   20151   20154   20155   20154   20157   20160   20163
   20154   20157   20160   20162   20154   20157   20160   20161
   20155   20154   20157   20160   20155   20154   20157   20159
   20155   20154   20157   20158   20156   20154   20157   20160
   20156   20154   20157   20159   20156   20154   20157   20158
   20157   20160   20163   20166   20157   20160   20163   20165
   20157   20160   20163   20164   20158   20157   20160   20163
   20158   20157   20160   20162   20158   20157   20160   20161
   20159   20157   20160   20163   20159   20157   20160   20162
   20159   20157   20160   20161   20160   20163   20166   20169
   20160   20163   20166   20168   20160   20163   20166   20167
   20161   20160   20163   20166   20161   20160   20163   20165
   20161   20160   20163   20164   20162   20160   20163   20166
   20162   20160   20163   20165   20162   20160   20163   20164
   20163   20166   20169   20172   20163   20166   20169   20171
   20163   20166   20169   20170   20164   20163   20166   20169
   20164   20163   20166   20168   20164   20163   20166   20167
   20165   20163   20166   20169   20165   20163   20166   20168
   20165   20163   20166   20167   20166   20169   20172   20175
   20166   20169   20172   20174   20166   20169   20172   20173
   20167   20166   20169   20172   20167   20166   20169   20171
   20167   20166   20169   20170   20168   20166   20169   20172
   20168   20166   20169   20171   20168   20166   20169   20170
   20170   20169   20172   20175   20170   20169   20172   20174
   20170   20169   20172   20173   20171   20169   20172   20175
   20171   20169   20172   20174   20171   20169   20172   20173
   20176   20179   20182   20185   20176   20179   20182   20184
   20176   20179   20182   20183   20177   20176   20179   20182
   20177   20176   20179   20181   20177   20176   20179   20180
   20178   20176   20179   20182   20178   20176   20179   20181
   20178   20176   20179   20180   20179   20182   20185   20188
   20179   20182   20185   20187   20179   20182   20185   20186
   20180   20179   20182   20185   20180   20179   20182   20184
   20180   20179   20182   20183   20181   20179   20182   20185
   20181   20179   20182   20184   20181   20179   20182   20183
   20182   20185   20188   20191   20182   20185   20188   20190
   20182   20185   20188   20189   20183   20182   20185   20188
   20183   20182   20185   20187   20183   20182   20185   20186
   20184   20182   20185   20188   20184   20182   20185   20187
   20184   20182   20185   20186   20185   20188   20191   20194
   20185   20188   20191   20193   20185   20188   20191   20192
   20186   20185   20188   20191   20186   20185   20188   20190
   20186   20185   20188   20189   20187   20185   20188   20191
   20187   20185   20188   20190   20187   20185   20188   20189
   20188   20191   20194   20197   20188   20191   20194   20196
   20188   20191   20194   20195   20189   20188   20191   20194
   20189   20188   20191   20193   20189   20188   20191   20192
   20190   20188   20191   20194   20190   20188   20191   20193
   20190   20188   20191   20192   20191   20194   20197   20200
   20191   20194   20197   20199   20191   20194   20197   20198
   20192   20191   20194   20197   20192   20191   20194   20196
   20192   20191   20194   20195   20193   20191   20194   20197
   20193   20191   20194   20196   20193   20191   20194   20195
   20194   20197   20200   20203   20194   20197   20200   20202
   20194   20197   20200   20201   20195   20194   20197   20200
   20195   20194   20197   20199   20195   20194   20197   20198
   20196   20194   20197   20200   20196   20194   20197   20199
   20196   20194   20197   20198   20197   20200   20203   20206
   20197   20200   20203   20205   20197   20200   20203   20204
   20198   20197   20200   20203   20198   20197   20200   20202
   20198   20197   20200   20201   20199   20197   20200   20203
   20199   20197   20200   20202   20199   20197   20200   20201
   20200   20203   20206   20209   20200   20203   20206   20208
   20200   20203   20206   20207   20201   20200   20203   20206
   20201   20200   20203   20205   20201   20200   20203   20204
   20202   20200   20203   20206   20202   20200   20203   20205
   20202   20200   20203   20204   20203   20206   20209   20212
   20203   20206   20209   20211   20203   20206   20209   20210
   20204   20203   20206   20209   20204   20203   20206   20208
   20204   20203   20206   20207   20205   20203   20206   20209
   20205   20203   20206   20208   20205   20203   20206   20207
   20206   20209   20212   20215   20206   20209   20212   20214
   20206   20209   20212   20213   20207   20206   20209   20212
   20207   20206   20209   20211   20207   20206   20209   20210
   20208   20206   20209   20212   20208   20206   20209   20211
   20208   20206   20209   20210   20209   20212   20215   20218
   20209   20212   20215   20217   20209   20212   20215   20216
   20210   20209   20212   20215   20210   20209   20212   20214
   20210   20209   20212   20213   20211   20209   20212   20215
   20211   20209   20212   20214   20211   20209   20212   20213
   20213   20212   20215   20218   20213   20212   20215   20217
   20213   20212   20215   20216   20214   20212   20215   20218
   20214   20212   20215   20217   20214   20212   20215   20216
   20219   20223   20226   20233   20219   20223   20226   20228
   20219   20223   20226   20227   20220   20219   20223   20226
   20220   20219   20223   20225   20220   20219   20223   20224
   20221   20219   20223   20226   20221   20219   20223   20225
   20221   20219   20223   20224   20222   20219   20223   20226
   20222   20219   20223   20225   20222   20219   20223   20224
   20223   20226   20233   20229   20224   20223   20226   20233
   20224   20223   20226   20228   20224   20223   20226   20227
   20225   20223   20226   20233   20225   20223   20226   20228
   20225   20223   20226   20227   20231   20229   20233   20226
   20230   20229   20233   20226   20232   20229   20233   20226
   20227   20226   20233   20229   20228   20226   20233   20229
   20229   20232   20234   20237   20229   20232   20234   20236
   20229   20232   20234   20235   20230   20229   20232   20234
   20231   20229   20232   20234   20232   20234   20237   20239
   20232   20234   20237   20245   20232   20234   20237   20238
   20233   20229   20232   20234   20234   20237   20239   20240
   20234   20237   20245   20248   20234   20237   20245   20247
   20234   20237   20245   20246   20235   20234   20237   20239
   20235   20234   20237   20245   20235   20234   20237   20238
   20236   20234   20237   20239   20236   20234   20237   20245
   20236   20234   20237   20238   20237   20239   20240   20241
   20237   20239   20240   20242   20237   20245   20248   20249
   20238   20237   20239   20240   20238   20237   20245   20248
   20238   20237   20245   20247   20238   20237   20245   20246
   20239   20240   20242   20254   20239   20240   20242   20244
   20239   20240   20242   20243   20239   20237   20245   20248
   20239   20237   20245   20247   20239   20237   20245   20246
   20240   20242   20254   20257   20240   20242   20254   20256
   20240   20242   20254   20255   20245   20237   20239   20240
   20241   20240   20242   20254   20241   20240   20242   20244
   20241   20240   20242   20243   20242   20254   20257   20260
   20242   20254   20257   20259   20242   20254   20257   20258
   20243   20242   20254   20257   20243   20242   20254   20256
   20243   20242   20254   20255   20244   20242   20254   20257
   20244   20242   20254   20256   20244   20242   20254   20255
   20245   20248   20249   20250   20245   20248   20249   20251
   20246   20245   20248   20249   20247   20245   20248   20249
   20248   20249   20251   20301   20248   20249   20251   20253
   20248   20249   20251   20252   20249   20251   20301   20304
   20249   20251   20301   20303   20249   20251   20301   20302
   20250   20249   20251   20301   20250   20249   20251   20253
   20250   20249   20251   20252   20251   20301   20304   20307
   20251   20301   20304   20306   20251   20301   20304   20305
   20252   20251   20301   20304   20252   20251   20301   20303
   20252   20251   20301   20302   20253   20251   20301   20304
   20253   20251   20301   20303   20253   20251   20301   20302
   20254   20257   20260   20263   20254   20257   20260   20262
   20254   20257   20260   20261   20255   20254   20257   20260
   20255   20254   20257   20259   20255   20254   20257   20258
   20256   20254   20257   20260   20256   20254   20257   20259
   20256   20254   20257   20258   20257   20260   20263   20266
   20257   20260   20263   20265   20257   20260   20263   20264
   20258   20257   20260   20263   20258   20257   20260   20262
   20258   20257   20260   20261   20259   20257   20260   20263
   20259   20257   20260   20262   20259   20257   20260   20261
   20260   20263   20266   20269   20260   20263   20266   20268
   20260   20263   20266   20267   20261   20260   20263   20266
   20261   20260   20263   20265   20261   20260   20263   20264
   20262   20260   20263   20266   20262   20260   20263   20265
   20262   20260   20263   20264   20263   20266   20269   20272
   20263   20266   20269   20271   20263   20266   20269   20270
   20264   20263   20266   20269   20264   20263   20266   20268
   20264   20263   20266   20267   20265   20263   20266   20269
   20265   20263   20266   20268   20265   20263   20266   20267
   20266   20269   20272   20274   20266   20269   20272   20273
   20267   20266   20269   20272   20267   20266   20269   20271
   20267   20266   20269   20270   20268   20266   20269   20272
   20268   20266   20269   20271   20268   20266   20269   20270
   20269   20272   20274   20276   20269   20272   20274   20275
   20270   20269   20272   20274   20270   20269   20272   20273
   20271   20269   20272   20274   20271   20269   20272   20273
   20272   20274   20276   20279   20272   20274   20276   20278
   20272   20274   20276   20277   20273   20272   20274   20276
   20273   20272   20274   20275   20274   20276   20279   20282
   20274   20276   20279   20281   20274   20276   20279   20280
   20275   20274   20276   20279   20275   20274   20276   20278
   20275   20274   20276   20277   20276   20279   20282   20285
   20276   20279   20282   20284   20276   20279   20282   20283
   20277   20276   20279   20282   20277   20276   20279   20281
   20277   20276   20279   20280   20278   20276   20279   20282
   20278   20276   20279   20281   20278   20276   20279   20280
   20279   20282   20285   20288   20279   20282   20285   20287
   20279   20282   20285   20286   20280   20279   20282   20285
   20280   20279   20282   20284   20280   20279   20282   20283
   20281   20279   20282   20285   20281   20279   20282   20284
   20281   20279   20282   20283   20282   20285   20288   20291
   20282   20285   20288   20290   20282   20285   20288   20289
   20283   20282   20285   20288   20283   20282   20285   20287
   20283   20282   20285   20286   20284   20282   20285   20288
   20284   20282   20285   20287   20284   20282   20285   20286
   20285   20288   20291   20294   20285   20288   20291   20293
   20285   20288   20291   20292   20286   20285   20288   20291
   20286   20285   20288   20290   20286   20285   20288   20289
   20287   20285   20288   20291   20287   20285   20288   20290
   20287   20285   20288   20289   20288   20291   20294   20297
   20288   20291   20294   20296   20288   20291   20294   20295
   20289   20288   20291   20294   20289   20288   20291   20293
   20289   20288   20291   20292   20290   20288   20291   20294
   20290   20288   20291   20293   20290   20288   20291   20292
   20291   20294   20297   20300   20291   20294   20297   20299
   20291   20294   20297   20298   20292   20291   20294   20297
   20292   20291   20294   20296   20292   20291   20294   20295
   20293   20291   20294   20297   20293   20291   20294   20296
   20293   20291   20294   20295   20295   20294   20297   20300
   20295   20294   20297   20299   20295   20294   20297   20298
   20296   20294   20297   20300   20296   20294   20297   20299
   20296   20294   20297   20298   20301   20304   20307   20310
   20301   20304   20307   20309   20301   20304   20307   20308
   20302   20301   20304   20307   20302   20301   20304   20306
   20302   20301   20304   20305   20303   20301   20304   20307
   20303   20301   20304   20306   20303   20301   20304   20305
   20304   20307   20310   20313   20304   20307   20310   20312
   20304   20307   20310   20311   20305   20304   20307   20310
   20305   20304   20307   20309   20305   20304   20307   20308
   20306   20304   20307   20310   20306   20304   20307   20309
   20306   20304   20307   20308   20307   20310   20313   20316
   20307   20310   20313   20315   20307   20310   20313   20314
   20308   20307   20310   20313   20308   20307   20310   20312
   20308   20307   20310   20311   20309   20307   20310   20313
   20309   20307   20310   20312   20309   20307   20310   20311
   20310   20313   20316   20319   20310   20313   20316   20318
   20310   20313   20316   20317   20311   20310   20313   20316
   20311   20310   20313   20315   20311   20310   20313   20314
   20312   20310   20313   20316   20312   20310   20313   20315
   20312   20310   20313   20314   20313   20316   20319   20322
   20313   20316   20319   20321   20313   20316   20319   20320
   20314   20313   20316   20319   20314   20313   20316   20318
   20314   20313   20316   20317   20315   20313   20316   20319
   20315   20313   20316   20318   20315   20313   20316   20317
   20316   20319   20322   20325   20316   20319   20322   20324
   20316   20319   20322   20323   20317   20316   20319   20322
   20317   20316   20319   20321   20317   20316   20319   20320
   20318   20316   20319   20322   20318   20316   20319   20321
   20318   20316   20319   20320   20319   20322   20325   20328
   20319   20322   20325   20327   20319   20322   20325   20326
   20320   20319   20322   20325   20320   20319   20322   20324
   20320   20319   20322   20323   20321   20319   20322   20325
   20321   20319   20322   20324   20321   20319   20322   20323
   20322   20325   20328   20331   20322   20325   20328   20330
   20322   20325   20328   20329   20323   20322   20325   20328
   20323   20322   20325   20327   20323   20322   20325   20326
   20324   20322   20325   20328   20324   20322   20325   20327
   20324   20322   20325   20326   20325   20328   20331   20334
   20325   20328   20331   20333   20325   20328   20331   20332
   20326   20325   20328   20331   20326   20325   20328   20330
   20326   20325   20328   20329   20327   20325   20328   20331
   20327   20325   20328   20330   20327   20325   20328   20329
   20328   20331   20334   20337   20328   20331   20334   20336
   20328   20331   20334   20335   20329   20328   20331   20334
   20329   20328   20331   20333   20329   20328   20331   20332
   20330   20328   20331   20334   20330   20328   20331   20333
   20330   20328   20331   20332   20331   20334   20337   20340
   20331   20334   20337   20339   20331   20334   20337   20338
   20332   20331   20334   20337   20332   20331   20334   20336
   20332   20331   20334   20335   20333   20331   20334   20337
   20333   20331   20334   20336   20333   20331   20334   20335
   20334   20337   20340   20343   20334   20337   20340   20342
   20334   20337   20340   20341   20335   20334   20337   20340
   20335   20334   20337   20339   20335   20334   20337   20338
   20336   20334   20337   20340   20336   20334   20337   20339
   20336   20334   20337   20338   20338   20337   20340   20343
   20338   20337   20340   20342   20338   20337   20340   20341
   20339   20337   20340   20343   20339   20337   20340   20342
   20339   20337   20340   20341   20344   20357   20360   20362
   20344   20357   20360   20361   20344   20357   20360   20367
   20345   20344   20349   20352   20345   20344   20349   20351
   20345   20344   20349   20350   20345   20344   20353   20356
   20345   20344   20353   20355   20345   20344   20353   20354
   20345   20344   20357   20359   20345   20344   20357   20358
   20345   20344   20357   20360   20349   20344   20345   20346
   20353   20344   20345   20346   20357   20344   20345   20346
   20349   20344   20345   20347   20353   20344   20345   20347
   20357   20344   20345   20347   20349   20344   20345   20348
   20353   20344   20345   20348   20357   20344   20345   20348
   20349   20344   20353   20356   20349   20344   20353   20355
   20349   20344   20353   20354   20349   20344   20357   20359
   20349   20344   20357   20358   20349   20344   20357   20360
   20353   20344   20349   20350   20357   20344   20349   20350
   20353   20344   20349   20351   20357   20344   20349   20351
   20353   20344   20349   20352   20357   20344   20349   20352
   20353   20344   20357   20359   20353   20344   20357   20358
   20353   20344   20357   20360   20357   20344   20353   20354
   20357   20344   20353   20355   20357   20344   20353   20356
   20357   20360   20367   20363   20358   20357   20360   20362
   20358   20357   20360   20361   20358   20357   20360   20367
   20359   20357   20360   20362   20359   20357   20360   20361
   20359   20357   20360   20367   20365   20363   20367   20360
   20364   20363   20367   20360   20366   20363   20367   20360
   20361   20360   20367   20363   20362   20360   20367   20363
   20363   20366   20368   20370   20363   20366   20368   20369
   20363   20366   20368   20373   20364   20363   20366   20368
   20365   20363   20366   20368   20366   20368   20373   20371
   20366   20368   20373   20374   20366   20368   20373   20375
   20367   20363   20366   20368   20423   20371   20373   20368
   20372   20371   20373   20368   20368   20373   20375   20377
   20368   20373   20375   20376   20368   20373   20375   20379
   20369   20368   20373   20371   20369   20368   20373   20374
   20369   20368   20373   20375   20370   20368   20373   20371
   20370   20368   20373   20374   20370   20368   20373   20375
   20371   20423   20425   20428   20371   20423   20425   20427
   20371   20423   20425   20426   20371   20373   20375   20377
   20371   20373   20375   20376   20371   20373   20375   20379
   20372   20371   20423   20424   20372   20371   20423   20425
   20372   20371   20373   20374   20372   20371   20373   20375
   20373   20371   20423   20424   20373   20371   20423   20425
   20373   20375   20377   20378   20373   20375   20379   20381
   20373   20375   20379   20380   20423   20371   20373   20374
   20374   20373   20375   20377   20374   20373   20375   20376
   20374   20373   20375   20379   20423   20371   20373   20375
   20375   20379   20381   20382   20375   20379   20381   20383
   20376   20375   20377   20378   20376   20375   20379   20381
   20376   20375   20379   20380   20377   20375   20379   20381
   20377   20375   20379   20380   20379   20375   20377   20378
   20379   20381   20383   20385   20379   20381   20383   20384
   20379   20381   20383   20386   20380   20379   20381   20382
   20380   20379   20381   20383   20381   20383   20386   20388
   20381   20383   20386   20387   20381   20383   20386   20389
   20382   20381   20383   20385   20382   20381   20383   20384
   20382   20381   20383   20386   20383   20386   20389   20391
   20383   20386   20389   20390   20383   20386   20389   20392
   20384   20383   20386   20388   20384   20383   20386   20387
   20384   20383   20386   20389   20385   20383   20386   20388
   20385   20383   20386   20387   20385   20383   20386   20389
   20386   20389   20392   20394   20386   20389   20392   20393
   20386   20389   20392   20395   20387   20386   20389   20391
   20387   20386   20389   20390   20387   20386   20389   20392
   20388   20386   20389   20391   20388   20386   20389   20390
   20388   20386   20389   20392   20389   20392   20395   20397
   20389   20392   20395   20396   20389   20392   20395   20398
   20390   20389   20392   20394   20390   20389   20392   20393
   20390   20389   20392   20395   20391   20389   20392   20394
   20391   20389   20392   20393   20391   20389   20392   20395
   20392   20395   20398   20400   20392   20395   20398   20399
   20392   20395   20398   20401   20393   20392   20395   20397
   20393   20392   20395   20396   20393   20392   20395   20398
   20394   20392   20395   20397   20394   20392   20395   20396
   20394   20392   20395   20398   20395   20398   20401   20403
   20395   20398   20401   20402   20395   20398   20401   20404
   20396   20395   20398   20400   20396   20395   20398   20399
   20396   20395   20398   20401   20397   20395   20398   20400
   20397   20395   20398   20399   20397   20395   20398   20401
   20398   20401   20404   20406   20398   20401   20404   20405
   20398   20401   20404   20407   20399   20398   20401   20403
   20399   20398   20401   20402   20399   20398   20401   20404
   20400   20398   20401   20403   20400   20398   20401   20402
   20400   20398   20401   20404   20401   20404   20407   20409
   20401   20404   20407   20408   20401   20404   20407   20410
   20402   20401   20404   20406   20402   20401   20404   20405
   20402   20401   20404   20407   20403   20401   20404   20406
   20403   20401   20404   20405   20403   20401   20404   20407
   20404   20407   20410   20412   20404   20407   20410   20411
   20404   20407   20410   20413   20405   20404   20407   20409
   20405   20404   20407   20408   20405   20404   20407   20410
   20406   20404   20407   20409   20406   20404   20407   20408
   20406   20404   20407   20410   20407   20410   20413   20415
   20407   20410   20413   20414   20407   20410   20413   20416
   20408   20407   20410   20412   20408   20407   20410   20411
   20408   20407   20410   20413   20409   20407   20410   20412
   20409   20407   20410   20411   20409   20407   20410   20413
   20410   20413   20416   20418   20410   20413   20416   20417
   20410   20413   20416   20419   20411   20410   20413   20415
   20411   20410   20413   20414   20411   20410   20413   20416
   20412   20410   20413   20415   20412   20410   20413   20414
   20412   20410   20413   20416   20413   20416   20419   20422
   20413   20416   20419   20421   20413   20416   20419   20420
   20414   20413   20416   20418   20414   20413   20416   20417
   20414   20413   20416   20419   20415   20413   20416   20418
   20415   20413   20416   20417   20415   20413   20416   20419
   20417   20416   20419   20422   20417   20416   20419   20421
   20417   20416   20419   20420   20418   20416   20419   20422
   20418   20416   20419   20421   20418   20416   20419   20420
   20423   20425   20428   20431   20423   20425   20428   20430
   20423   20425   20428   20429   20424   20423   20425   20428
   20424   20423   20425   20427   20424   20423   20425   20426
   20425   20428   20431   20434   20425   20428   20431   20433
   20425   20428   20431   20432   20426   20425   20428   20431
   20426   20425   20428   20430   20426   20425   20428   20429
   20427   20425   20428   20431   20427   20425   20428   20430
   20427   20425   20428   20429   20428   20431   20434   20437
   20428   20431   20434   20436   20428   20431   20434   20435
   20429   20428   20431   20434   20429   20428   20431   20433
   20429   20428   20431   20432   20430   20428   20431   20434
   20430   20428   20431   20433   20430   20428   20431   20432
   20431   20434   20437   20440   20431   20434   20437   20439
   20431   20434   20437   20438   20432   20431   20434   20437
   20432   20431   20434   20436   20432   20431   20434   20435
   20433   20431   20434   20437   20433   20431   20434   20436
   20433   20431   20434   20435   20434   20437   20440   20443
   20434   20437   20440   20442   20434   20437   20440   20441
   20435   20434   20437   20440   20435   20434   20437   20439
   20435   20434   20437   20438   20436   20434   20437   20440
   20436   20434   20437   20439   20436   20434   20437   20438
   20437   20440   20443   20446   20437   20440   20443   20445
   20437   20440   20443   20444   20438   20437   20440   20443
   20438   20437   20440   20442   20438   20437   20440   20441
   20439   20437   20440   20443   20439   20437   20440   20442
   20439   20437   20440   20441   20440   20443   20446   20449
   20440   20443   20446   20448   20440   20443   20446   20447
   20441   20440   20443   20446   20441   20440   20443   20445
   20441   20440   20443   20444   20442   20440   20443   20446
   20442   20440   20443   20445   20442   20440   20443   20444
   20443   20446   20449   20452   20443   20446   20449   20451
   20443   20446   20449   20450   20444   20443   20446   20449
   20444   20443   20446   20448   20444   20443   20446   20447
   20445   20443   20446   20449   20445   20443   20446   20448
   20445   20443   20446   20447   20446   20449   20452   20455
   20446   20449   20452   20454   20446   20449   20452   20453
   20447   20446   20449   20452   20447   20446   20449   20451
   20447   20446   20449   20450   20448   20446   20449   20452
   20448   20446   20449   20451   20448   20446   20449   20450
   20449   20452   20455   20458   20449   20452   20455   20457
   20449   20452   20455   20456   20450   20449   20452   20455
   20450   20449   20452   20454   20450   20449   20452   20453
   20451   20449   20452   20455   20451   20449   20452   20454
   20451   20449   20452   20453   20452   20455   20458   20461
   20452   20455   20458   20460   20452   20455   20458   20459
   20453   20452   20455   20458   20453   20452   20455   20457
   20453   20452   20455   20456   20454   20452   20455   20458
   20454   20452   20455   20457   20454   20452   20455   20456
   20455   20458   20461   20464   20455   20458   20461   20463
   20455   20458   20461   20462   20456   20455   20458   20461
   20456   20455   20458   20460   20456   20455   20458   20459
   20457   20455   20458   20461   20457   20455   20458   20460
   20457   20455   20458   20459   20458   20461   20464   20467
   20458   20461   20464   20466   20458   20461   20464   20465
   20459   20458   20461   20464   20459   20458   20461   20463
   20459   20458   20461   20462   20460   20458   20461   20464
   20460   20458   20461   20463   20460   20458   20461   20462
   20461   20464   20467   20470   20461   20464   20467   20469
   20461   20464   20467   20468   20462   20461   20464   20467
   20462   20461   20464   20466   20462   20461   20464   20465
   20463   20461   20464   20467   20463   20461   20464   20466
   20463   20461   20464   20465   20465   20464   20467   20470
   20465   20464   20467   20469   20465   20464   20467   20468
   20466   20464   20467   20470   20466   20464   20467   20469
   20466   20464   20467   20468   20471   20475   20480   20486
   20471   20475   20480   20482   20471   20475   20480   20481
   20471   20475   20477   20478   20471   20475   20477   20479
   20472   20471   20475   20480   20472   20471   20475   20476
   20472   20471   20475   20477   20473   20471   20475   20480
   20473   20471   20475   20476   20473   20471   20475   20477
   20474   20471   20475   20480   20474   20471   20475   20476
   20474   20471   20475   20477   20475   20480   20486   20483
   20476   20475   20480   20486   20476   20475   20480   20482
   20476   20475   20480   20481   20476   20475   20477   20478
   20476   20475   20477   20479   20477   20475   20480   20486
   20477   20475   20480   20482   20477   20475   20480   20481
   20480   20475   20477   20478   20480   20475   20477   20479
   20485   20483   20486   20480   20484   20483   20486   20480
   20487   20483   20486   20480   20481   20480   20486   20483
   20482   20480   20486   20483   20483   20487   20488   20491
   20483   20487   20488   20490   20483   20487   20488   20489
   20484   20483   20487   20488   20485   20483   20487   20488
   20486   20483   20487   20488   20487   20488   20491   20493
   20487   20488   20491   20499   20487   20488   20491   20492
   20488   20491   20493   20494   20488   20491   20499   20502
   20488   20491   20499   20501   20488   20491   20499   20500
   20489   20488   20491   20493   20489   20488   20491   20499
   20489   20488   20491   20492   20490   20488   20491   20493
   20490   20488   20491   20499   20490   20488   20491   20492
   20491   20493   20494   20495   20491   20493   20494   20496
   20491   20499   20502   20503   20492   20491   20493   20494
   20492   20491   20499   20502   20492   20491   20499   20501
   20492   20491   20499   20500   20493   20494   20496   20508
   20493   20494   20496   20498   20493   20494   20496   20497
   20493   20491   20499   20502   20493   20491   20499   20501
   20493   20491   20499   20500   20494   20496   20508   20511
   20494   20496   20508   20510   20494   20496   20508   20509
   20499   20491   20493   20494   20495   20494   20496   20508
   20495   20494   20496   20498   20495   20494   20496   20497
   20496   20508   20511   20514   20496   20508   20511   20513
   20496   20508   20511   20512   20497   20496   20508   20511
   20497   20496   20508   20510   20497   20496   20508   20509
   20498   20496   20508   20511   20498   20496   20508   20510
   20498   20496   20508   20509   20499   20502   20503   20504
   20499   20502   20503   20505   20500   20499   20502   20503
   20501   20499   20502   20503   20502   20503   20505   20555
   20502   20503   20505   20507   20502   20503   20505   20506
   20503   20505   20555   20558   20503   20505   20555   20557
   20503   20505   20555   20556   20504   20503   20505   20555
   20504   20503   20505   20507   20504   20503   20505   20506
   20505   20555   20558   20561   20505   20555   20558   20560
   20505   20555   20558   20559   20506   20505   20555   20558
   20506   20505   20555   20557   20506   20505   20555   20556
   20507   20505   20555   20558   20507   20505   20555   20557
   20507   20505   20555   20556   20508   20511   20514   20517
   20508   20511   20514   20516   20508   20511   20514   20515
   20509   20508   20511   20514   20509   20508   20511   20513
   20509   20508   20511   20512   20510   20508   20511   20514
   20510   20508   20511   20513   20510   20508   20511   20512
   20511   20514   20517   20520   20511   20514   20517   20519
   20511   20514   20517   20518   20512   20511   20514   20517
   20512   20511   20514   20516   20512   20511   20514   20515
   20513   20511   20514   20517   20513   20511   20514   20516
   20513   20511   20514   20515   20514   20517   20520   20523
   20514   20517   20520   20522   20514   20517   20520   20521
   20515   20514   20517   20520   20515   20514   20517   20519
   20515   20514   20517   20518   20516   20514   20517   20520
   20516   20514   20517   20519   20516   20514   20517   20518
   20517   20520   20523   20526   20517   20520   20523   20525
   20517   20520   20523   20524   20518   20517   20520   20523
   20518   20517   20520   20522   20518   20517   20520   20521
   20519   20517   20520   20523   20519   20517   20520   20522
   20519   20517   20520   20521   20520   20523   20526   20528
   20520   20523   20526   20527   20521   20520   20523   20526
   20521   20520   20523   20525   20521   20520   20523   20524
   20522   20520   20523   20526   20522   20520   20523   20525
   20522   20520   20523   20524   20523   20526   20528   20530
   20523   20526   20528   20529   20524   20523   20526   20528
   20524   20523   20526   20527   20525   20523   20526   20528
   20525   20523   20526   20527   20526   20528   20530   20533
   20526   20528   20530   20532   20526   20528   20530   20531
   20527   20526   20528   20530   20527   20526   20528   20529
   20528   20530   20533   20536   20528   20530   20533   20535
   20528   20530   20533   20534   20529   20528   20530   20533
   20529   20528   20530   20532   20529   20528   20530   20531
   20530   20533   20536   20539   20530   20533   20536   20538
   20530   20533   20536   20537   20531   20530   20533   20536
   20531   20530   20533   20535   20531   20530   20533   20534
   20532   20530   20533   20536   20532   20530   20533   20535
   20532   20530   20533   20534   20533   20536   20539   20542
   20533   20536   20539   20541   20533   20536   20539   20540
   20534   20533   20536   20539   20534   20533   20536   20538
   20534   20533   20536   20537   20535   20533   20536   20539
   20535   20533   20536   20538   20535   20533   20536   20537
   20536   20539   20542   20545   20536   20539   20542   20544
   20536   20539   20542   20543   20537   20536   20539   20542
   20537   20536   20539   20541   20537   20536   20539   20540
   20538   20536   20539   20542   20538   20536   20539   20541
   20538   20536   20539   20540   20539   20542   20545   20548
   20539   20542   20545   20547   20539   20542   20545   20546
   20540   20539   20542   20545   20540   20539   20542   20544
   20540   20539   20542   20543   20541   20539   20542   20545
   20541   20539   20542   20544   20541   20539   20542   20543
   20542   20545   20548   20551   20542   20545   20548   20550
   20542   20545   20548   20549   20543   20542   20545   20548
   20543   20542   20545   20547   20543   20542   20545   20546
   20544   20542   20545   20548   20544   20542   20545   20547
   20544   20542   20545   20546   20545   20548   20551   20554
   20545   20548   20551   20553   20545   20548   20551   20552
   20546   20545   20548   20551   20546   20545   20548   20550
   20546   20545   20548   20549   20547   20545   20548   20551
   20547   20545   20548   20550   20547   20545   20548   20549
   20549   20548   20551   20554   20549   20548   20551   20553
   20549   20548   20551   20552   20550   20548   20551   20554
   20550   20548   20551   20553   20550   20548   20551   20552
   20555   20558   20561   20564   20555   20558   20561   20563
   20555   20558   20561   20562   20556   20555   20558   20561
   20556   20555   20558   20560   20556   20555   20558   20559
   20557   20555   20558   20561   20557   20555   20558   20560
   20557   20555   20558   20559   20558   20561   20564   20567
   20558   20561   20564   20566   20558   20561   20564   20565
   20559   20558   20561   20564   20559   20558   20561   20563
   20559   20558   20561   20562   20560   20558   20561   20564
   20560   20558   20561   20563   20560   20558   20561   20562
   20561   20564   20567   20570   20561   20564   20567   20569
   20561   20564   20567   20568   20562   20561   20564   20567
   20562   20561   20564   20566   20562   20561   20564   20565
   20563   20561   20564   20567   20563   20561   20564   20566
   20563   20561   20564   20565   20564   20567   20570   20573
   20564   20567   20570   20572   20564   20567   20570   20571
   20565   20564   20567   20570   20565   20564   20567   20569
   20565   20564   20567   20568   20566   20564   20567   20570
   20566   20564   20567   20569   20566   20564   20567   20568
   20567   20570   20573   20576   20567   20570   20573   20575
   20567   20570   20573   20574   20568   20567   20570   20573
   20568   20567   20570   20572   20568   20567   20570   20571
   20569   20567   20570   20573   20569   20567   20570   20572
   20569   20567   20570   20571   20570   20573   20576   20579
   20570   20573   20576   20578   20570   20573   20576   20577
   20571   20570   20573   20576   20571   20570   20573   20575
   20571   20570   20573   20574   20572   20570   20573   20576
   20572   20570   20573   20575   20572   20570   20573   20574
   20573   20576   20579   20582   20573   20576   20579   20581
   20573   20576   20579   20580   20574   20573   20576   20579
   20574   20573   20576   20578   20574   20573   20576   20577
   20575   20573   20576   20579   20575   20573   20576   20578
   20575   20573   20576   20577   20576   20579   20582   20585
   20576   20579   20582   20584   20576   20579   20582   20583
   20577   20576   20579   20582   20577   20576   20579   20581
   20577   20576   20579   20580   20578   20576   20579   20582
   20578   20576   20579   20581   20578   20576   20579   20580
   20579   20582   20585   20588   20579   20582   20585   20587
   20579   20582   20585   20586   20580   20579   20582   20585
   20580   20579   20582   20584   20580   20579   20582   20583
   20581   20579   20582   20585   20581   20579   20582   20584
   20581   20579   20582   20583   20582   20585   20588   20591
   20582   20585   20588   20590   20582   20585   20588   20589
   20583   20582   20585   20588   20583   20582   20585   20587
   20583   20582   20585   20586   20584   20582   20585   20588
   20584   20582   20585   20587   20584   20582   20585   20586
   20585   20588   20591   20594   20585   20588   20591   20593
   20585   20588   20591   20592   20586   20585   20588   20591
   20586   20585   20588   20590   20586   20585   20588   20589
   20587   20585   20588   20591   20587   20585   20588   20590
   20587   20585   20588   20589   20588   20591   20594   20597
   20588   20591   20594   20596   20588   20591   20594   20595
   20589   20588   20591   20594   20589   20588   20591   20593
   20589   20588   20591   20592   20590   20588   20591   20594
   20590   20588   20591   20593   20590   20588   20591   20592
   20592   20591   20594   20597   20592   20591   20594   20596
   20592   20591   20594   20595   20593   20591   20594   20597
   20593   20591   20594   20596   20593   20591   20594   20595
   20598   20602   20605   20612   20598   20602   20605   20607
   20598   20602   20605   20606   20599   20598   20602   20605
   20599   20598   20602   20604   20599   20598   20602   20603
   20600   20598   20602   20605   20600   20598   20602   20604
   20600   20598   20602   20603   20601   20598   20602   20605
   20601   20598   20602   20604   20601   20598   20602   20603
   20602   20605   20612   20608   20603   20602   20605   20612
   20603   20602   20605   20607   20603   20602   20605   20606
   20604   20602   20605   20612   20604   20602   20605   20607
   20604   20602   20605   20606   20610   20608   20612   20605
   20609   20608   20612   20605   20611   20608   20612   20605
   20606   20605   20612   20608   20607   20605   20612   20608
   20608   20611   20613   20616   20608   20611   20613   20615
   20608   20611   20613   20614   20609   20608   20611   20613
   20610   20608   20611   20613   20611   20613   20616   20618
   20611   20613   20616   20624   20611   20613   20616   20617
   20612   20608   20611   20613   20613   20616   20618   20619
   20613   20616   20624   20627   20613   20616   20624   20626
   20613   20616   20624   20625   20614   20613   20616   20618
   20614   20613   20616   20624   20614   20613   20616   20617
   20615   20613   20616   20618   20615   20613   20616   20624
   20615   20613   20616   20617   20616   20618   20619   20620
   20616   20618   20619   20621   20616   20624   20627   20628
   20617   20616   20618   20619   20617   20616   20624   20627
   20617   20616   20624   20626   20617   20616   20624   20625
   20618   20619   20621   20633   20618   20619   20621   20623
   20618   20619   20621   20622   20618   20616   20624   20627
   20618   20616   20624   20626   20618   20616   20624   20625
   20619   20621   20633   20636   20619   20621   20633   20635
   20619   20621   20633   20634   20624   20616   20618   20619
   20620   20619   20621   20633   20620   20619   20621   20623
   20620   20619   20621   20622   20621   20633   20636   20639
   20621   20633   20636   20638   20621   20633   20636   20637
   20622   20621   20633   20636   20622   20621   20633   20635
   20622   20621   20633   20634   20623   20621   20633   20636
   20623   20621   20633   20635   20623   20621   20633   20634
   20624   20627   20628   20629   20624   20627   20628   20630
   20625   20624   20627   20628   20626   20624   20627   20628
   20627   20628   20630   20680   20627   20628   20630   20632
   20627   20628   20630   20631   20628   20630   20680   20683
   20628   20630   20680   20682   20628   20630   20680   20681
   20629   20628   20630   20680   20629   20628   20630   20632
   20629   20628   20630   20631   20630   20680   20683   20686
   20630   20680   20683   20685   20630   20680   20683   20684
   20631   20630   20680   20683   20631   20630   20680   20682
   20631   20630   20680   20681   20632   20630   20680   20683
   20632   20630   20680   20682   20632   20630   20680   20681
   20633   20636   20639   20642   20633   20636   20639   20641
   20633   20636   20639   20640   20634   20633   20636   20639
   20634   20633   20636   20638   20634   20633   20636   20637
   20635   20633   20636   20639   20635   20633   20636   20638
   20635   20633   20636   20637   20636   20639   20642   20645
   20636   20639   20642   20644   20636   20639   20642   20643
   20637   20636   20639   20642   20637   20636   20639   20641
   20637   20636   20639   20640   20638   20636   20639   20642
   20638   20636   20639   20641   20638   20636   20639   20640
   20639   20642   20645   20648   20639   20642   20645   20647
   20639   20642   20645   20646   20640   20639   20642   20645
   20640   20639   20642   20644   20640   20639   20642   20643
   20641   20639   20642   20645   20641   20639   20642   20644
   20641   20639   20642   20643   20642   20645   20648   20651
   20642   20645   20648   20650   20642   20645   20648   20649
   20643   20642   20645   20648   20643   20642   20645   20647
   20643   20642   20645   20646   20644   20642   20645   20648
   20644   20642   20645   20647   20644   20642   20645   20646
   20645   20648   20651   20653   20645   20648   20651   20652
   20646   20645   20648   20651   20646   20645   20648   20650
   20646   20645   20648   20649   20647   20645   20648   20651
   20647   20645   20648   20650   20647   20645   20648   20649
   20648   20651   20653   20655   20648   20651   20653   20654
   20649   20648   20651   20653   20649   20648   20651   20652
   20650   20648   20651   20653   20650   20648   20651   20652
   20651   20653   20655   20658   20651   20653   20655   20657
   20651   20653   20655   20656   20652   20651   20653   20655
   20652   20651   20653   20654   20653   20655   20658   20661
   20653   20655   20658   20660   20653   20655   20658   20659
   20654   20653   20655   20658   20654   20653   20655   20657
   20654   20653   20655   20656   20655   20658   20661   20664
   20655   20658   20661   20663   20655   20658   20661   20662
   20656   20655   20658   20661   20656   20655   20658   20660
   20656   20655   20658   20659   20657   20655   20658   20661
   20657   20655   20658   20660   20657   20655   20658   20659
   20658   20661   20664   20667   20658   20661   20664   20666
   20658   20661   20664   20665   20659   20658   20661   20664
   20659   20658   20661   20663   20659   20658   20661   20662
   20660   20658   20661   20664   20660   20658   20661   20663
   20660   20658   20661   20662   20661   20664   20667   20670
   20661   20664   20667   20669   20661   20664   20667   20668
   20662   20661   20664   20667   20662   20661   20664   20666
   20662   20661   20664   20665   20663   20661   20664   20667
   20663   20661   20664   20666   20663   20661   20664   20665
   20664   20667   20670   20673   20664   20667   20670   20672
   20664   20667   20670   20671   20665   20664   20667   20670
   20665   20664   20667   20669   20665   20664   20667   20668
   20666   20664   20667   20670   20666   20664   20667   20669
   20666   20664   20667   20668   20667   20670   20673   20676
   20667   20670   20673   20675   20667   20670   20673   20674
   20668   20667   20670   20673   20668   20667   20670   20672
   20668   20667   20670   20671   20669   20667   20670   20673
   20669   20667   20670   20672   20669   20667   20670   20671
   20670   20673   20676   20679   20670   20673   20676   20678
   20670   20673   20676   20677   20671   20670   20673   20676
   20671   20670   20673   20675   20671   20670   20673   20674
   20672   20670   20673   20676   20672   20670   20673   20675
   20672   20670   20673   20674   20674   20673   20676   20679
   20674   20673   20676   20678   20674   20673   20676   20677
   20675   20673   20676   20679   20675   20673   20676   20678
   20675   20673   20676   20677   20680   20683   20686   20689
   20680   20683   20686   20688   20680   20683   20686   20687
   20681   20680   20683   20686   20681   20680   20683   20685
   20681   20680   20683   20684   20682   20680   20683   20686
   20682   20680   20683   20685   20682   20680   20683   20684
   20683   20686   20689   20692   20683   20686   20689   20691
   20683   20686   20689   20690   20684   20683   20686   20689
   20684   20683   20686   20688   20684   20683   20686   20687
   20685   20683   20686   20689   20685   20683   20686   20688
   20685   20683   20686   20687   20686   20689   20692   20695
   20686   20689   20692   20694   20686   20689   20692   20693
   20687   20686   20689   20692   20687   20686   20689   20691
   20687   20686   20689   20690   20688   20686   20689   20692
   20688   20686   20689   20691   20688   20686   20689   20690
   20689   20692   20695   20698   20689   20692   20695   20697
   20689   20692   20695   20696   20690   20689   20692   20695
   20690   20689   20692   20694   20690   20689   20692   20693
   20691   20689   20692   20695   20691   20689   20692   20694
   20691   20689   20692   20693   20692   20695   20698   20701
   20692   20695   20698   20700   20692   20695   20698   20699
   20693   20692   20695   20698   20693   20692   20695   20697
   20693   20692   20695   20696   20694   20692   20695   20698
   20694   20692   20695   20697   20694   20692   20695   20696
   20695   20698   20701   20704   20695   20698   20701   20703
   20695   20698   20701   20702   20696   20695   20698   20701
   20696   20695   20698   20700   20696   20695   20698   20699
   20697   20695   20698   20701   20697   20695   20698   20700
   20697   20695   20698   20699   20698   20701   20704   20707
   20698   20701   20704   20706   20698   20701   20704   20705
   20699   20698   20701   20704   20699   20698   20701   20703
   20699   20698   20701   20702   20700   20698   20701   20704
   20700   20698   20701   20703   20700   20698   20701   20702
   20701   20704   20707   20710   20701   20704   20707   20709
   20701   20704   20707   20708   20702   20701   20704   20707
   20702   20701   20704   20706   20702   20701   20704   20705
   20703   20701   20704   20707   20703   20701   20704   20706
   20703   20701   20704   20705   20704   20707   20710   20713
   20704   20707   20710   20712   20704   20707   20710   20711
   20705   20704   20707   20710   20705   20704   20707   20709
   20705   20704   20707   20708   20706   20704   20707   20710
   20706   20704   20707   20709   20706   20704   20707   20708
   20707   20710   20713   20716   20707   20710   20713   20715
   20707   20710   20713   20714   20708   20707   20710   20713
   20708   20707   20710   20712   20708   20707   20710   20711
   20709   20707   20710   20713   20709   20707   20710   20712
   20709   20707   20710   20711   20710   20713   20716   20719
   20710   20713   20716   20718   20710   20713   20716   20717
   20711   20710   20713   20716   20711   20710   20713   20715
   20711   20710   20713   20714   20712   20710   20713   20716
   20712   20710   20713   20715   20712   20710   20713   20714
   20713   20716   20719   20722   20713   20716   20719   20721
   20713   20716   20719   20720   20714   20713   20716   20719
   20714   20713   20716   20718   20714   20713   20716   20717
   20715   20713   20716   20719   20715   20713   20716   20718
   20715   20713   20716   20717   20717   20716   20719   20722
   20717   20716   20719   20721   20717   20716   20719   20720
   20718   20716   20719   20722   20718   20716   20719   20721
   20718   20716   20719   20720   20723   20724   20739   20745
   20723   20724   20739   20741   20723   20724   20739   20740
   20724   20739   20745   20742   20724   20723   20735   20738
   20724   20723   20735   20737   20724   20723   20735   20736
   20724   20723   20731   20734   20724   20723   20731   20733
   20724   20723   20731   20732   20724   20723   20727   20730
   20724   20723   20727   20729   20724   20723   20727   20728
   20725   20724   20739   20745   20725   20724   20739   20741
   20725   20724   20739   20740   20735   20723   20724   20725
   20731   20723   20724   20725   20727   20723   20724   20725
   20726   20724   20739   20745   20726   20724   20739   20741
   20726   20724   20739   20740   20735   20723   20724   20726
   20731   20723   20724   20726   20727   20723   20724   20726
   20727   20723   20724   20739   20727   20723   20735   20738
   20727   20723   20735   20737   20727   20723   20735   20736
   20727   20723   20731   20734   20727   20723   20731   20733
   20727   20723   20731   20732   20735   20723   20727   20728
   20731   20723   20727   20728   20735   20723   20727   20729
   20731   20723   20727   20729   20735   20723   20727   20730
   20731   20723   20727   20730   20731   20723   20724   20739
   20731   20723   20735   20738   20731   20723   20735   20737
   20731   20723   20735   20736   20735   20723   20731   20732
   20735   20723   20731   20733   20735   20723   20731   20734
   20735   20723   20724   20739   20744   20742   20745   20739
   20743   20742   20745   20739   20746   20742   20745   20739
   20740   20739   20745   20742   20741   20739   20745   20742
   20742   20746   20747   20750   20742   20746   20747   20749
   20742   20746   20747   20748   20743   20742   20746   20747
   20744   20742   20746   20747   20745   20742   20746   20747
   20746   20747   20750   20752   20746   20747   20750   20758
   20746   20747   20750   20751   20747   20750   20752   20753
   20747   20750   20758   20761   20747   20750   20758   20760
   20747   20750   20758   20759   20748   20747   20750   20752
   20748   20747   20750   20758   20748   20747   20750   20751
   20749   20747   20750   20752   20749   20747   20750   20758
   20749   20747   20750   20751   20750   20752   20753   20754
   20750   20752   20753   20755   20750   20758   20761   20762
   20751   20750   20752   20753   20751   20750   20758   20761
   20751   20750   20758   20760   20751   20750   20758   20759
   20752   20753   20755   20767   20752   20753   20755   20757
   20752   20753   20755   20756   20752   20750   20758   20761
   20752   20750   20758   20760   20752   20750   20758   20759
   20753   20755   20767   20770   20753   20755   20767   20769
   20753   20755   20767   20768   20758   20750   20752   20753
   20754   20753   20755   20767   20754   20753   20755   20757
   20754   20753   20755   20756   20755   20767   20770   20773
   20755   20767   20770   20772   20755   20767   20770   20771
   20756   20755   20767   20770   20756   20755   20767   20769
   20756   20755   20767   20768   20757   20755   20767   20770
   20757   20755   20767   20769   20757   20755   20767   20768
   20758   20761   20762   20763   20758   20761   20762   20764
   20759   20758   20761   20762   20760   20758   20761   20762
   20761   20762   20764   20814   20761   20762   20764   20766
   20761   20762   20764   20765   20762   20764   20814   20817
   20762   20764   20814   20816   20762   20764   20814   20815
   20763   20762   20764   20814   20763   20762   20764   20766
   20763   20762   20764   20765   20764   20814   20817   20820
   20764   20814   20817   20819   20764   20814   20817   20818
   20765   20764   20814   20817   20765   20764   20814   20816
   20765   20764   20814   20815   20766   20764   20814   20817
   20766   20764   20814   20816   20766   20764   20814   20815
   20767   20770   20773   20776   20767   20770   20773   20775
   20767   20770   20773   20774   20768   20767   20770   20773
   20768   20767   20770   20772   20768   20767   20770   20771
   20769   20767   20770   20773   20769   20767   20770   20772
   20769   20767   20770   20771   20770   20773   20776   20779
   20770   20773   20776   20778   20770   20773   20776   20777
   20771   20770   20773   20776   20771   20770   20773   20775
   20771   20770   20773   20774   20772   20770   20773   20776
   20772   20770   20773   20775   20772   20770   20773   20774
   20773   20776   20779   20782   20773   20776   20779   20781
   20773   20776   20779   20780   20774   20773   20776   20779
   20774   20773   20776   20778   20774   20773   20776   20777
   20775   20773   20776   20779   20775   20773   20776   20778
   20775   20773   20776   20777   20776   20779   20782   20785
   20776   20779   20782   20784   20776   20779   20782   20783
   20777   20776   20779   20782   20777   20776   20779   20781
   20777   20776   20779   20780   20778   20776   20779   20782
   20778   20776   20779   20781   20778   20776   20779   20780
   20779   20782   20785   20787   20779   20782   20785   20786
   20780   20779   20782   20785   20780   20779   20782   20784
   20780   20779   20782   20783   20781   20779   20782   20785
   20781   20779   20782   20784   20781   20779   20782   20783
   20782   20785   20787   20789   20782   20785   20787   20788
   20783   20782   20785   20787   20783   20782   20785   20786
   20784   20782   20785   20787   20784   20782   20785   20786
   20785   20787   20789   20792   20785   20787   20789   20791
   20785   20787   20789   20790   20786   20785   20787   20789
   20786   20785   20787   20788   20787   20789   20792   20795
   20787   20789   20792   20794   20787   20789   20792   20793
   20788   20787   20789   20792   20788   20787   20789   20791
   20788   20787   20789   20790   20789   20792   20795   20798
   20789   20792   20795   20797   20789   20792   20795   20796
   20790   20789   20792   20795   20790   20789   20792   20794
   20790   20789   20792   20793   20791   20789   20792   20795
   20791   20789   20792   20794   20791   20789   20792   20793
   20792   20795   20798   20801   20792   20795   20798   20800
   20792   20795   20798   20799   20793   20792   20795   20798
   20793   20792   20795   20797   20793   20792   20795   20796
   20794   20792   20795   20798   20794   20792   20795   20797
   20794   20792   20795   20796   20795   20798   20801   20804
   20795   20798   20801   20803   20795   20798   20801   20802
   20796   20795   20798   20801   20796   20795   20798   20800
   20796   20795   20798   20799   20797   20795   20798   20801
   20797   20795   20798   20800   20797   20795   20798   20799
   20798   20801   20804   20807   20798   20801   20804   20806
   20798   20801   20804   20805   20799   20798   20801   20804
   20799   20798   20801   20803   20799   20798   20801   20802
   20800   20798   20801   20804   20800   20798   20801   20803
   20800   20798   20801   20802   20801   20804   20807   20810
   20801   20804   20807   20809   20801   20804   20807   20808
   20802   20801   20804   20807   20802   20801   20804   20806
   20802   20801   20804   20805   20803   20801   20804   20807
   20803   20801   20804   20806   20803   20801   20804   20805
   20804   20807   20810   20813   20804   20807   20810   20812
   20804   20807   20810   20811   20805   20804   20807   20810
   20805   20804   20807   20809   20805   20804   20807   20808
   20806   20804   20807   20810   20806   20804   20807   20809
   20806   20804   20807   20808   20808   20807   20810   20813
   20808   20807   20810   20812   20808   20807   20810   20811
   20809   20807   20810   20813   20809   20807   20810   20812
   20809   20807   20810   20811   20814   20817   20820   20823
   20814   20817   20820   20822   20814   20817   20820   20821
   20815   20814   20817   20820   20815   20814   20817   20819
   20815   20814   20817   20818   20816   20814   20817   20820
   20816   20814   20817   20819   20816   20814   20817   20818
   20817   20820   20823   20826   20817   20820   20823   20825
   20817   20820   20823   20824   20818   20817   20820   20823
   20818   20817   20820   20822   20818   20817   20820   20821
   20819   20817   20820   20823   20819   20817   20820   20822
   20819   20817   20820   20821   20820   20823   20826   20829
   20820   20823   20826   20828   20820   20823   20826   20827
   20821   20820   20823   20826   20821   20820   20823   20825
   20821   20820   20823   20824   20822   20820   20823   20826
   20822   20820   20823   20825   20822   20820   20823   20824
   20823   20826   20829   20832   20823   20826   20829   20831
   20823   20826   20829   20830   20824   20823   20826   20829
   20824   20823   20826   20828   20824   20823   20826   20827
   20825   20823   20826   20829   20825   20823   20826   20828
   20825   20823   20826   20827   20826   20829   20832   20835
   20826   20829   20832   20834   20826   20829   20832   20833
   20827   20826   20829   20832   20827   20826   20829   20831
   20827   20826   20829   20830   20828   20826   20829   20832
   20828   20826   20829   20831   20828   20826   20829   20830
   20829   20832   20835   20838   20829   20832   20835   20837
   20829   20832   20835   20836   20830   20829   20832   20835
   20830   20829   20832   20834   20830   20829   20832   20833
   20831   20829   20832   20835   20831   20829   20832   20834
   20831   20829   20832   20833   20832   20835   20838   20841
   20832   20835   20838   20840   20832   20835   20838   20839
   20833   20832   20835   20838   20833   20832   20835   20837
   20833   20832   20835   20836   20834   20832   20835   20838
   20834   20832   20835   20837   20834   20832   20835   20836
   20835   20838   20841   20844   20835   20838   20841   20843
   20835   20838   20841   20842   20836   20835   20838   20841
   20836   20835   20838   20840   20836   20835   20838   20839
   20837   20835   20838   20841   20837   20835   20838   20840
   20837   20835   20838   20839   20838   20841   20844   20847
   20838   20841   20844   20846   20838   20841   20844   20845
   20839   20838   20841   20844   20839   20838   20841   20843
   20839   20838   20841   20842   20840   20838   20841   20844
   20840   20838   20841   20843   20840   20838   20841   20842
   20841   20844   20847   20850   20841   20844   20847   20849
   20841   20844   20847   20848   20842   20841   20844   20847
   20842   20841   20844   20846   20842   20841   20844   20845
   20843   20841   20844   20847   20843   20841   20844   20846
   20843   20841   20844   20845   20844   20847   20850   20853
   20844   20847   20850   20852   20844   20847   20850   20851
   20845   20844   20847   20850   20845   20844   20847   20849
   20845   20844   20847   20848   20846   20844   20847   20850
   20846   20844   20847   20849   20846   20844   20847   20848
   20847   20850   20853   20856   20847   20850   20853   20855
   20847   20850   20853   20854   20848   20847   20850   20853
   20848   20847   20850   20852   20848   20847   20850   20851
   20849   20847   20850   20853   20849   20847   20850   20852
   20849   20847   20850   20851   20851   20850   20853   20856
   20851   20850   20853   20855   20851   20850   20853   20854
   20852   20850   20853   20856   20852   20850   20853   20855
   20852   20850   20853   20854   20857   20861   20864   20871
   20857   20861   20864   20866   20857   20861   20864   20865
   20858   20857   20861   20864   20858   20857   20861   20863
   20858   20857   20861   20862   20859   20857   20861   20864
   20859   20857   20861   20863   20859   20857   20861   20862
   20860   20857   20861   20864   20860   20857   20861   20863
   20860   20857   20861   20862   20861   20864   20871   20867
   20862   20861   20864   20871   20862   20861   20864   20866
   20862   20861   20864   20865   20863   20861   20864   20871
   20863   20861   20864   20866   20863   20861   20864   20865
   20869   20867   20871   20864   20868   20867   20871   20864
   20870   20867   20871   20864   20865   20864   20871   20867
   20866   20864   20871   20867   20867   20870   20872   20875
   20867   20870   20872   20874   20867   20870   20872   20873
   20868   20867   20870   20872   20869   20867   20870   20872
   20870   20872   20875   20877   20870   20872   20875   20883
   20870   20872   20875   20876   20871   20867   20870   20872
   20872   20875   20877   20878   20872   20875   20883   20886
   20872   20875   20883   20885   20872   20875   20883   20884
   20873   20872   20875   20877   20873   20872   20875   20883
   20873   20872   20875   20876   20874   20872   20875   20877
   20874   20872   20875   20883   20874   20872   20875   20876
   20875   20877   20878   20879   20875   20877   20878   20880
   20875   20883   20886   20887   20876   20875   20877   20878
   20876   20875   20883   20886   20876   20875   20883   20885
   20876   20875   20883   20884   20877   20878   20880   20892
   20877   20878   20880   20882   20877   20878   20880   20881
   20877   20875   20883   20886   20877   20875   20883   20885
   20877   20875   20883   20884   20878   20880   20892   20895
   20878   20880   20892   20894   20878   20880   20892   20893
   20883   20875   20877   20878   20879   20878   20880   20892
   20879   20878   20880   20882   20879   20878   20880   20881
   20880   20892   20895   20898   20880   20892   20895   20897
   20880   20892   20895   20896   20881   20880   20892   20895
   20881   20880   20892   20894   20881   20880   20892   20893
   20882   20880   20892   20895   20882   20880   20892   20894
   20882   20880   20892   20893   20883   20886   20887   20888
   20883   20886   20887   20889   20884   20883   20886   20887
   20885   20883   20886   20887   20886   20887   20889   20939
   20886   20887   20889   20891   20886   20887   20889   20890
   20887   20889   20939   20942   20887   20889   20939   20941
   20887   20889   20939   20940   20888   20887   20889   20939
   20888   20887   20889   20891   20888   20887   20889   20890
   20889   20939   20942   20945   20889   20939   20942   20944
   20889   20939   20942   20943   20890   20889   20939   20942
   20890   20889   20939   20941   20890   20889   20939   20940
   20891   20889   20939   20942   20891   20889   20939   20941
   20891   20889   20939   20940   20892   20895   20898   20901
   20892   20895   20898   20900   20892   20895   20898   20899
   20893   20892   20895   20898   20893   20892   20895   20897
   20893   20892   20895   20896   20894   20892   20895   20898
   20894   20892   20895   20897   20894   20892   20895   20896
   20895   20898   20901   20904   20895   20898   20901   20903
   20895   20898   20901   20902   20896   20895   20898   20901
   20896   20895   20898   20900   20896   20895   20898   20899
   20897   20895   20898   20901   20897   20895   20898   20900
   20897   20895   20898   20899   20898   20901   20904   20907
   20898   20901   20904   20906   20898   20901   20904   20905
   20899   20898   20901   20904   20899   20898   20901   20903
   20899   20898   20901   20902   20900   20898   20901   20904
   20900   20898   20901   20903   20900   20898   20901   20902
   20901   20904   20907   20910   20901   20904   20907   20909
   20901   20904   20907   20908   20902   20901   20904   20907
   20902   20901   20904   20906   20902   20901   20904   20905
   20903   20901   20904   20907   20903   20901   20904   20906
   20903   20901   20904   20905   20904   20907   20910   20912
   20904   20907   20910   20911   20905   20904   20907   20910
   20905   20904   20907   20909   20905   20904   20907   20908
   20906   20904   20907   20910   20906   20904   20907   20909
   20906   20904   20907   20908   20907   20910   20912   20914
   20907   20910   20912   20913   20908   20907   20910   20912
   20908   20907   20910   20911   20909   20907   20910   20912
   20909   20907   20910   20911   20910   20912   20914   20917
   20910   20912   20914   20916   20910   20912   20914   20915
   20911   20910   20912   20914   20911   20910   20912   20913
   20912   20914   20917   20920   20912   20914   20917   20919
   20912   20914   20917   20918   20913   20912   20914   20917
   20913   20912   20914   20916   20913   20912   20914   20915
   20914   20917   20920   20923   20914   20917   20920   20922
   20914   20917   20920   20921   20915   20914   20917   20920
   20915   20914   20917   20919   20915   20914   20917   20918
   20916   20914   20917   20920   20916   20914   20917   20919
   20916   20914   20917   20918   20917   20920   20923   20926
   20917   20920   20923   20925   20917   20920   20923   20924
   20918   20917   20920   20923   20918   20917   20920   20922
   20918   20917   20920   20921   20919   20917   20920   20923
   20919   20917   20920   20922   20919   20917   20920   20921
   20920   20923   20926   20929   20920   20923   20926   20928
   20920   20923   20926   20927   20921   20920   20923   20926
   20921   20920   20923   20925   20921   20920   20923   20924
   20922   20920   20923   20926   20922   20920   20923   20925
   20922   20920   20923   20924   20923   20926   20929   20932
   20923   20926   20929   20931   20923   20926   20929   20930
   20924   20923   20926   20929   20924   20923   20926   20928
   20924   20923   20926   20927   20925   20923   20926   20929
   20925   20923   20926   20928   20925   20923   20926   20927
   20926   20929   20932   20935   20926   20929   20932   20934
   20926   20929   20932   20933   20927   20926   20929   20932
   20927   20926   20929   20931   20927   20926   20929   20930
   20928   20926   20929   20932   20928   20926   20929   20931
   20928   20926   20929   20930   20929   20932   20935   20938
   20929   20932   20935   20937   20929   20932   20935   20936
   20930   20929   20932   20935   20930   20929   20932   20934
   20930   20929   20932   20933   20931   20929   20932   20935
   20931   20929   20932   20934   20931   20929   20932   20933
   20933   20932   20935   20938   20933   20932   20935   20937
   20933   20932   20935   20936   20934   20932   20935   20938
   20934   20932   20935   20937   20934   20932   20935   20936
   20939   20942   20945   20948   20939   20942   20945   20947
   20939   20942   20945   20946   20940   20939   20942   20945
   20940   20939   20942   20944   20940   20939   20942   20943
   20941   20939   20942   20945   20941   20939   20942   20944
   20941   20939   20942   20943   20942   20945   20948   20951
   20942   20945   20948   20950   20942   20945   20948   20949
   20943   20942   20945   20948   20943   20942   20945   20947
   20943   20942   20945   20946   20944   20942   20945   20948
   20944   20942   20945   20947   20944   20942   20945   20946
   20945   20948   20951   20954   20945   20948   20951   20953
   20945   20948   20951   20952   20946   20945   20948   20951
   20946   20945   20948   20950   20946   20945   20948   20949
   20947   20945   20948   20951   20947   20945   20948   20950
   20947   20945   20948   20949   20948   20951   20954   20957
   20948   20951   20954   20956   20948   20951   20954   20955
   20949   20948   20951   20954   20949   20948   20951   20953
   20949   20948   20951   20952   20950   20948   20951   20954
   20950   20948   20951   20953   20950   20948   20951   20952
   20951   20954   20957   20960   20951   20954   20957   20959
   20951   20954   20957   20958   20952   20951   20954   20957
   20952   20951   20954   20956   20952   20951   20954   20955
   20953   20951   20954   20957   20953   20951   20954   20956
   20953   20951   20954   20955   20954   20957   20960   20963
   20954   20957   20960   20962   20954   20957   20960   20961
   20955   20954   20957   20960   20955   20954   20957   20959
   20955   20954   20957   20958   20956   20954   20957   20960
   20956   20954   20957   20959   20956   20954   20957   20958
   20957   20960   20963   20966   20957   20960   20963   20965
   20957   20960   20963   20964   20958   20957   20960   20963
   20958   20957   20960   20962   20958   20957   20960   20961
   20959   20957   20960   20963   20959   20957   20960   20962
   20959   20957   20960   20961   20960   20963   20966   20969
   20960   20963   20966   20968   20960   20963   20966   20967
   20961   20960   20963   20966   20961   20960   20963   20965
   20961   20960   20963   20964   20962   20960   20963   20966
   20962   20960   20963   20965   20962   20960   20963   20964
   20963   20966   20969   20972   20963   20966   20969   20971
   20963   20966   20969   20970   20964   20963   20966   20969
   20964   20963   20966   20968   20964   20963   20966   20967
   20965   20963   20966   20969   20965   20963   20966   20968
   20965   20963   20966   20967   20966   20969   20972   20975
   20966   20969   20972   20974   20966   20969   20972   20973
   20967   20966   20969   20972   20967   20966   20969   20971
   20967   20966   20969   20970   20968   20966   20969   20972
   20968   20966   20969   20971   20968   20966   20969   20970
   20969   20972   20975   20978   20969   20972   20975   20977
   20969   20972   20975   20976   20970   20969   20972   20975
   20970   20969   20972   20974   20970   20969   20972   20973
   20971   20969   20972   20975   20971   20969   20972   20974
   20971   20969   20972   20973   20972   20975   20978   20981
   20972   20975   20978   20980   20972   20975   20978   20979
   20973   20972   20975   20978   20973   20972   20975   20977
   20973   20972   20975   20976   20974   20972   20975   20978
   20974   20972   20975   20977   20974   20972   20975   20976
   20976   20975   20978   20981   20976   20975   20978   20980
   20976   20975   20978   20979   20977   20975   20978   20981
   20977   20975   20978   20980   20977   20975   20978   20979
   20982   20983   20998   21004   20982   20983   20998   21000
   20982   20983   20998   20999   20983   20998   21004   21001
   20983   20982   20994   20997   20983   20982   20994   20996
   20983   20982   20994   20995   20983   20982   20990   20993
   20983   20982   20990   20992   20983   20982   20990   20991
   20983   20982   20986   20989   20983   20982   20986   20988
   20983   20982   20986   20987   20984   20983   20998   21004
   20984   20983   20998   21000   20984   20983   20998   20999
   20994   20982   20983   20984   20990   20982   20983   20984
   20986   20982   20983   20984   20985   20983   20998   21004
   20985   20983   20998   21000   20985   20983   20998   20999
   20994   20982   20983   20985   20990   20982   20983   20985
   20986   20982   20983   20985   20986   20982   20983   20998
   20986   20982   20994   20997   20986   20982   20994   20996
   20986   20982   20994   20995   20986   20982   20990   20993
   20986   20982   20990   20992   20986   20982   20990   20991
   20994   20982   20986   20987   20990   20982   20986   20987
   20994   20982   20986   20988   20990   20982   20986   20988
   20994   20982   20986   20989   20990   20982   20986   20989
   20990   20982   20983   20998   20990   20982   20994   20997
   20990   20982   20994   20996   20990   20982   20994   20995
   20994   20982   20990   20991   20994   20982   20990   20992
   20994   20982   20990   20993   20994   20982   20983   20998
   21003   21001   21004   20998   21002   21001   21004   20998
   21005   21001   21004   20998   20999   20998   21004   21001
   21000   20998   21004   21001   21001   21005   21006   21009
   21001   21005   21006   21008   21001   21005   21006   21007
   21002   21001   21005   21006   21003   21001   21005   21006
   21004   21001   21005   21006   21005   21006   21009   21011
   21005   21006   21009   21017   21005   21006   21009   21010
   21006   21009   21011   21012   21006   21009   21017   21020
   21006   21009   21017   21019   21006   21009   21017   21018
   21007   21006   21009   21011   21007   21006   21009   21017
   21007   21006   21009   21010   21008   21006   21009   21011
   21008   21006   21009   21017   21008   21006   21009   21010
   21009   21011   21012   21013   21009   21011   21012   21014
   21009   21017   21020   21021   21010   21009   21011   21012
   21010   21009   21017   21020   21010   21009   21017   21019
   21010   21009   21017   21018   21011   21012   21014   21026
   21011   21012   21014   21016   21011   21012   21014   21015
   21011   21009   21017   21020   21011   21009   21017   21019
   21011   21009   21017   21018   21012   21014   21026   21029
   21012   21014   21026   21028   21012   21014   21026   21027
   21017   21009   21011   21012   21013   21012   21014   21026
   21013   21012   21014   21016   21013   21012   21014   21015
   21014   21026   21029   21032   21014   21026   21029   21031
   21014   21026   21029   21030   21015   21014   21026   21029
   21015   21014   21026   21028   21015   21014   21026   21027
   21016   21014   21026   21029   21016   21014   21026   21028
   21016   21014   21026   21027   21017   21020   21021   21022
   21017   21020   21021   21023   21018   21017   21020   21021
   21019   21017   21020   21021   21020   21021   21023   21073
   21020   21021   21023   21025   21020   21021   21023   21024
   21021   21023   21073   21076   21021   21023   21073   21075
   21021   21023   21073   21074   21022   21021   21023   21073
   21022   21021   21023   21025   21022   21021   21023   21024
   21023   21073   21076   21079   21023   21073   21076   21078
   21023   21073   21076   21077   21024   21023   21073   21076
   21024   21023   21073   21075   21024   21023   21073   21074
   21025   21023   21073   21076   21025   21023   21073   21075
   21025   21023   21073   21074   21026   21029   21032   21035
   21026   21029   21032   21034   21026   21029   21032   21033
   21027   21026   21029   21032   21027   21026   21029   21031
   21027   21026   21029   21030   21028   21026   21029   21032
   21028   21026   21029   21031   21028   21026   21029   21030
   21029   21032   21035   21038   21029   21032   21035   21037
   21029   21032   21035   21036   21030   21029   21032   21035
   21030   21029   21032   21034   21030   21029   21032   21033
   21031   21029   21032   21035   21031   21029   21032   21034
   21031   21029   21032   21033   21032   21035   21038   21041
   21032   21035   21038   21040   21032   21035   21038   21039
   21033   21032   21035   21038   21033   21032   21035   21037
   21033   21032   21035   21036   21034   21032   21035   21038
   21034   21032   21035   21037   21034   21032   21035   21036
   21035   21038   21041   21044   21035   21038   21041   21043
   21035   21038   21041   21042   21036   21035   21038   21041
   21036   21035   21038   21040   21036   21035   21038   21039
   21037   21035   21038   21041   21037   21035   21038   21040
   21037   21035   21038   21039   21038   21041   21044   21046
   21038   21041   21044   21045   21039   21038   21041   21044
   21039   21038   21041   21043   21039   21038   21041   21042
   21040   21038   21041   21044   21040   21038   21041   21043
   21040   21038   21041   21042   21041   21044   21046   21048
   21041   21044   21046   21047   21042   21041   21044   21046
   21042   21041   21044   21045   21043   21041   21044   21046
   21043   21041   21044   21045   21044   21046   21048   21051
   21044   21046   21048   21050   21044   21046   21048   21049
   21045   21044   21046   21048   21045   21044   21046   21047
   21046   21048   21051   21054   21046   21048   21051   21053
   21046   21048   21051   21052   21047   21046   21048   21051
   21047   21046   21048   21050   21047   21046   21048   21049
   21048   21051   21054   21057   21048   21051   21054   21056
   21048   21051   21054   21055   21049   21048   21051   21054
   21049   21048   21051   21053   21049   21048   21051   21052
   21050   21048   21051   21054   21050   21048   21051   21053
   21050   21048   21051   21052   21051   21054   21057   21060
   21051   21054   21057   21059   21051   21054   21057   21058
   21052   21051   21054   21057   21052   21051   21054   21056
   21052   21051   21054   21055   21053   21051   21054   21057
   21053   21051   21054   21056   21053   21051   21054   21055
   21054   21057   21060   21063   21054   21057   21060   21062
   21054   21057   21060   21061   21055   21054   21057   21060
   21055   21054   21057   21059   21055   21054   21057   21058
   21056   21054   21057   21060   21056   21054   21057   21059
   21056   21054   21057   21058   21057   21060   21063   21066
   21057   21060   21063   21065   21057   21060   21063   21064
   21058   21057   21060   21063   21058   21057   21060   21062
   21058   21057   21060   21061   21059   21057   21060   21063
   21059   21057   21060   21062   21059   21057   21060   21061
   21060   21063   21066   21069   21060   21063   21066   21068
   21060   21063   21066   21067   21061   21060   21063   21066
   21061   21060   21063   21065   21061   21060   21063   21064
   21062   21060   21063   21066   21062   21060   21063   21065
   21062   21060   21063   21064   21063   21066   21069   21072
   21063   21066   21069   21071   21063   21066   21069   21070
   21064   21063   21066   21069   21064   21063   21066   21068
   21064   21063   21066   21067   21065   21063   21066   21069
   21065   21063   21066   21068   21065   21063   21066   21067
   21067   21066   21069   21072   21067   21066   21069   21071
   21067   21066   21069   21070   21068   21066   21069   21072
   21068   21066   21069   21071   21068   21066   21069   21070
   21073   21076   21079   21082   21073   21076   21079   21081
   21073   21076   21079   21080   21074   21073   21076   21079
   21074   21073   21076   21078   21074   21073   21076   21077
   21075   21073   21076   21079   21075   21073   21076   21078
   21075   21073   21076   21077   21076   21079   21082   21085
   21076   21079   21082   21084   21076   21079   21082   21083
   21077   21076   21079   21082   21077   21076   21079   21081
   21077   21076   21079   21080   21078   21076   21079   21082
   21078   21076   21079   21081   21078   21076   21079   21080
   21079   21082   21085   21088   21079   21082   21085   21087
   21079   21082   21085   21086   21080   21079   21082   21085
   21080   21079   21082   21084   21080   21079   21082   21083
   21081   21079   21082   21085   21081   21079   21082   21084
   21081   21079   21082   21083   21082   21085   21088   21091
   21082   21085   21088   21090   21082   21085   21088   21089
   21083   21082   21085   21088   21083   21082   21085   21087
   21083   21082   21085   21086   21084   21082   21085   21088
   21084   21082   21085   21087   21084   21082   21085   21086
   21085   21088   21091   21094   21085   21088   21091   21093
   21085   21088   21091   21092   21086   21085   21088   21091
   21086   21085   21088   21090   21086   21085   21088   21089
   21087   21085   21088   21091   21087   21085   21088   21090
   21087   21085   21088   21089   21088   21091   21094   21097
   21088   21091   21094   21096   21088   21091   21094   21095
   21089   21088   21091   21094   21089   21088   21091   21093
   21089   21088   21091   21092   21090   21088   21091   21094
   21090   21088   21091   21093   21090   21088   21091   21092
   21091   21094   21097   21100   21091   21094   21097   21099
   21091   21094   21097   21098   21092   21091   21094   21097
   21092   21091   21094   21096   21092   21091   21094   21095
   21093   21091   21094   21097   21093   21091   21094   21096
   21093   21091   21094   21095   21094   21097   21100   21103
   21094   21097   21100   21102   21094   21097   21100   21101
   21095   21094   21097   21100   21095   21094   21097   21099
   21095   21094   21097   21098   21096   21094   21097   21100
   21096   21094   21097   21099   21096   21094   21097   21098
   21097   21100   21103   21106   21097   21100   21103   21105
   21097   21100   21103   21104   21098   21097   21100   21103
   21098   21097   21100   21102   21098   21097   21100   21101
   21099   21097   21100   21103   21099   21097   21100   21102
   21099   21097   21100   21101   21100   21103   21106   21109
   21100   21103   21106   21108   21100   21103   21106   21107
   21101   21100   21103   21106   21101   21100   21103   21105
   21101   21100   21103   21104   21102   21100   21103   21106
   21102   21100   21103   21105   21102   21100   21103   21104
   21103   21106   21109   21112   21103   21106   21109   21111
   21103   21106   21109   21110   21104   21103   21106   21109
   21104   21103   21106   21108   21104   21103   21106   21107
   21105   21103   21106   21109   21105   21103   21106   21108
   21105   21103   21106   21107   21106   21109   21112   21115
   21106   21109   21112   21114   21106   21109   21112   21113
   21107   21106   21109   21112   21107   21106   21109   21111
   21107   21106   21109   21110   21108   21106   21109   21112
   21108   21106   21109   21111   21108   21106   21109   21110
   21110   21109   21112   21115   21110   21109   21112   21114
   21110   21109   21112   21113   21111   21109   21112   21115
   21111   21109   21112   21114   21111   21109   21112   21113
   21116   21117   21132   21138   21116   21117   21132   21134
   21116   21117   21132   21133   21117   21132   21138   21135
   21117   21116   21128   21131   21117   21116   21128   21130
   21117   21116   21128   21129   21117   21116   21124   21127
   21117   21116   21124   21126   21117   21116   21124   21125
   21117   21116   21120   21123   21117   21116   21120   21122
   21117   21116   21120   21121   21118   21117   21132   21138
   21118   21117   21132   21134   21118   21117   21132   21133
   21128   21116   21117   21118   21124   21116   21117   21118
   21120   21116   21117   21118   21119   21117   21132   21138
   21119   21117   21132   21134   21119   21117   21132   21133
   21128   21116   21117   21119   21124   21116   21117   21119
   21120   21116   21117   21119   21120   21116   21117   21132
   21120   21116   21128   21131   21120   21116   21128   21130
   21120   21116   21128   21129   21120   21116   21124   21127
   21120   21116   21124   21126   21120   21116   21124   21125
   21128   21116   21120   21121   21124   21116   21120   21121
   21128   21116   21120   21122   21124   21116   21120   21122
   21128   21116   21120   21123   21124   21116   21120   21123
   21124   21116   21117   21132   21124   21116   21128   21131
   21124   21116   21128   21130   21124   21116   21128   21129
   21128   21116   21124   21125   21128   21116   21124   21126
   21128   21116   21124   21127   21128   21116   21117   21132
   21137   21135   21138   21132   21136   21135   21138   21132
   21139   21135   21138   21132   21133   21132   21138   21135
   21134   21132   21138   21135   21135   21139   21140   21143
   21135   21139   21140   21142   21135   21139   21140   21141
   21136   21135   21139   21140   21137   21135   21139   21140
   21138   21135   21139   21140   21139   21140   21143   21145
   21139   21140   21143   21151   21139   21140   21143   21144
   21140   21143   21145   21146   21140   21143   21151   21154
   21140   21143   21151   21153   21140   21143   21151   21152
   21141   21140   21143   21145   21141   21140   21143   21151
   21141   21140   21143   21144   21142   21140   21143   21145
   21142   21140   21143   21151   21142   21140   21143   21144
   21143   21145   21146   21147   21143   21145   21146   21148
   21143   21151   21154   21155   21144   21143   21145   21146
   21144   21143   21151   21154   21144   21143   21151   21153
   21144   21143   21151   21152   21145   21146   21148   21160
   21145   21146   21148   21150   21145   21146   21148   21149
   21145   21143   21151   21154   21145   21143   21151   21153
   21145   21143   21151   21152   21146   21148   21160   21163
   21146   21148   21160   21162   21146   21148   21160   21161
   21151   21143   21145   21146   21147   21146   21148   21160
   21147   21146   21148   21150   21147   21146   21148   21149
   21148   21160   21163   21166   21148   21160   21163   21165
   21148   21160   21163   21164   21149   21148   21160   21163
   21149   21148   21160   21162   21149   21148   21160   21161
   21150   21148   21160   21163   21150   21148   21160   21162
   21150   21148   21160   21161   21151   21154   21155   21156
   21151   21154   21155   21157   21152   21151   21154   21155
   21153   21151   21154   21155   21154   21155   21157   21207
   21154   21155   21157   21159   21154   21155   21157   21158
   21155   21157   21207   21210   21155   21157   21207   21209
   21155   21157   21207   21208   21156   21155   21157   21207
   21156   21155   21157   21159   21156   21155   21157   21158
   21157   21207   21210   21213   21157   21207   21210   21212
   21157   21207   21210   21211   21158   21157   21207   21210
   21158   21157   21207   21209   21158   21157   21207   21208
   21159   21157   21207   21210   21159   21157   21207   21209
   21159   21157   21207   21208   21160   21163   21166   21169
   21160   21163   21166   21168   21160   21163   21166   21167
   21161   21160   21163   21166   21161   21160   21163   21165
   21161   21160   21163   21164   21162   21160   21163   21166
   21162   21160   21163   21165   21162   21160   21163   21164
   21163   21166   21169   21172   21163   21166   21169   21171
   21163   21166   21169   21170   21164   21163   21166   21169
   21164   21163   21166   21168   21164   21163   21166   21167
   21165   21163   21166   21169   21165   21163   21166   21168
   21165   21163   21166   21167   21166   21169   21172   21175
   21166   21169   21172   21174   21166   21169   21172   21173
   21167   21166   21169   21172   21167   21166   21169   21171
   21167   21166   21169   21170   21168   21166   21169   21172
   21168   21166   21169   21171   21168   21166   21169   21170
   21169   21172   21175   21178   21169   21172   21175   21177
   21169   21172   21175   21176   21170   21169   21172   21175
   21170   21169   21172   21174   21170   21169   21172   21173
   21171   21169   21172   21175   21171   21169   21172   21174
   21171   21169   21172   21173   21172   21175   21178   21180
   21172   21175   21178   21179   21173   21172   21175   21178
   21173   21172   21175   21177   21173   21172   21175   21176
   21174   21172   21175   21178   21174   21172   21175   21177
   21174   21172   21175   21176   21175   21178   21180   21182
   21175   21178   21180   21181   21176   21175   21178   21180
   21176   21175   21178   21179   21177   21175   21178   21180
   21177   21175   21178   21179   21178   21180   21182   21185
   21178   21180   21182   21184   21178   21180   21182   21183
   21179   21178   21180   21182   21179   21178   21180   21181
   21180   21182   21185   21188   21180   21182   21185   21187
   21180   21182   21185   21186   21181   21180   21182   21185
   21181   21180   21182   21184   21181   21180   21182   21183
   21182   21185   21188   21191   21182   21185   21188   21190
   21182   21185   21188   21189   21183   21182   21185   21188
   21183   21182   21185   21187   21183   21182   21185   21186
   21184   21182   21185   21188   21184   21182   21185   21187
   21184   21182   21185   21186   21185   21188   21191   21194
   21185   21188   21191   21193   21185   21188   21191   21192
   21186   21185   21188   21191   21186   21185   21188   21190
   21186   21185   21188   21189   21187   21185   21188   21191
   21187   21185   21188   21190   21187   21185   21188   21189
   21188   21191   21194   21197   21188   21191   21194   21196
   21188   21191   21194   21195   21189   21188   21191   21194
   21189   21188   21191   21193   21189   21188   21191   21192
   21190   21188   21191   21194   21190   21188   21191   21193
   21190   21188   21191   21192   21191   21194   21197   21200
   21191   21194   21197   21199   21191   21194   21197   21198
   21192   21191   21194   21197   21192   21191   21194   21196
   21192   21191   21194   21195   21193   21191   21194   21197
   21193   21191   21194   21196   21193   21191   21194   21195
   21194   21197   21200   21203   21194   21197   21200   21202
   21194   21197   21200   21201   21195   21194   21197   21200
   21195   21194   21197   21199   21195   21194   21197   21198
   21196   21194   21197   21200   21196   21194   21197   21199
   21196   21194   21197   21198   21197   21200   21203   21206
   21197   21200   21203   21205   21197   21200   21203   21204
   21198   21197   21200   21203   21198   21197   21200   21202
   21198   21197   21200   21201   21199   21197   21200   21203
   21199   21197   21200   21202   21199   21197   21200   21201
   21201   21200   21203   21206   21201   21200   21203   21205
   21201   21200   21203   21204   21202   21200   21203   21206
   21202   21200   21203   21205   21202   21200   21203   21204
   21207   21210   21213   21216   21207   21210   21213   21215
   21207   21210   21213   21214   21208   21207   21210   21213
   21208   21207   21210   21212   21208   21207   21210   21211
   21209   21207   21210   21213   21209   21207   21210   21212
   21209   21207   21210   21211   21210   21213   21216   21219
   21210   21213   21216   21218   21210   21213   21216   21217
   21211   21210   21213   21216   21211   21210   21213   21215
   21211   21210   21213   21214   21212   21210   21213   21216
   21212   21210   21213   21215   21212   21210   21213   21214
   21213   21216   21219   21222   21213   21216   21219   21221
   21213   21216   21219   21220   21214   21213   21216   21219
   21214   21213   21216   21218   21214   21213   21216   21217
   21215   21213   21216   21219   21215   21213   21216   21218
   21215   21213   21216   21217   21216   21219   21222   21225
   21216   21219   21222   21224   21216   21219   21222   21223
   21217   21216   21219   21222   21217   21216   21219   21221
   21217   21216   21219   21220   21218   21216   21219   21222
   21218   21216   21219   21221   21218   21216   21219   21220
   21219   21222   21225   21228   21219   21222   21225   21227
   21219   21222   21225   21226   21220   21219   21222   21225
   21220   21219   21222   21224   21220   21219   21222   21223
   21221   21219   21222   21225   21221   21219   21222   21224
   21221   21219   21222   21223   21222   21225   21228   21231
   21222   21225   21228   21230   21222   21225   21228   21229
   21223   21222   21225   21228   21223   21222   21225   21227
   21223   21222   21225   21226   21224   21222   21225   21228
   21224   21222   21225   21227   21224   21222   21225   21226
   21225   21228   21231   21234   21225   21228   21231   21233
   21225   21228   21231   21232   21226   21225   21228   21231
   21226   21225   21228   21230   21226   21225   21228   21229
   21227   21225   21228   21231   21227   21225   21228   21230
   21227   21225   21228   21229   21228   21231   21234   21237
   21228   21231   21234   21236   21228   21231   21234   21235
   21229   21228   21231   21234   21229   21228   21231   21233
   21229   21228   21231   21232   21230   21228   21231   21234
   21230   21228   21231   21233   21230   21228   21231   21232
   21231   21234   21237   21240   21231   21234   21237   21239
   21231   21234   21237   21238   21232   21231   21234   21237
   21232   21231   21234   21236   21232   21231   21234   21235
   21233   21231   21234   21237   21233   21231   21234   21236
   21233   21231   21234   21235   21234   21237   21240   21243
   21234   21237   21240   21242   21234   21237   21240   21241
   21235   21234   21237   21240   21235   21234   21237   21239
   21235   21234   21237   21238   21236   21234   21237   21240
   21236   21234   21237   21239   21236   21234   21237   21238
   21237   21240   21243   21246   21237   21240   21243   21245
   21237   21240   21243   21244   21238   21237   21240   21243
   21238   21237   21240   21242   21238   21237   21240   21241
   21239   21237   21240   21243   21239   21237   21240   21242
   21239   21237   21240   21241   21240   21243   21246   21249
   21240   21243   21246   21248   21240   21243   21246   21247
   21241   21240   21243   21246   21241   21240   21243   21245
   21241   21240   21243   21244   21242   21240   21243   21246
   21242   21240   21243   21245   21242   21240   21243   21244
   21244   21243   21246   21249   21244   21243   21246   21248
   21244   21243   21246   21247   21245   21243   21246   21249
   21245   21243   21246   21248   21245   21243   21246   21247
   21250   21263   21266   21268   21250   21263   21266   21267
   21250   21263   21266   21273   21251   21250   21255   21258
   21251   21250   21255   21257   21251   21250   21255   21256
   21251   21250   21259   21262   21251   21250   21259   21261
   21251   21250   21259   21260   21251   21250   21263   21265
   21251   21250   21263   21264   21251   21250   21263   21266
   21255   21250   21251   21252   21259   21250   21251   21252
   21263   21250   21251   21252   21255   21250   21251   21253
   21259   21250   21251   21253   21263   21250   21251   21253
   21255   21250   21251   21254   21259   21250   21251   21254
   21263   21250   21251   21254   21255   21250   21259   21262
   21255   21250   21259   21261   21255   21250   21259   21260
   21255   21250   21263   21265   21255   21250   21263   21264
   21255   21250   21263   21266   21259   21250   21255   21256
   21263   21250   21255   21256   21259   21250   21255   21257
   21263   21250   21255   21257   21259   21250   21255   21258
   21263   21250   21255   21258   21259   21250   21263   21265
   21259   21250   21263   21264   21259   21250   21263   21266
   21263   21250   21259   21260   21263   21250   21259   21261
   21263   21250   21259   21262   21263   21266   21273   21269
   21264   21263   21266   21268   21264   21263   21266   21267
   21264   21263   21266   21273   21265   21263   21266   21268
   21265   21263   21266   21267   21265   21263   21266   21273
   21271   21269   21273   21266   21270   21269   21273   21266
   21272   21269   21273   21266   21267   21266   21273   21269
   21268   21266   21273   21269   21269   21272   21274   21276
   21269   21272   21274   21275   21269   21272   21274   21279
   21270   21269   21272   21274   21271   21269   21272   21274
   21272   21274   21279   21277   21272   21274   21279   21280
   21272   21274   21279   21281   21273   21269   21272   21274
   21329   21277   21279   21274   21278   21277   21279   21274
   21274   21279   21281   21283   21274   21279   21281   21282
   21274   21279   21281   21285   21275   21274   21279   21277
   21275   21274   21279   21280   21275   21274   21279   21281
   21276   21274   21279   21277   21276   21274   21279   21280
   21276   21274   21279   21281   21277   21329   21331   21334
   21277   21329   21331   21333   21277   21329   21331   21332
   21277   21279   21281   21283   21277   21279   21281   21282
   21277   21279   21281   21285   21278   21277   21329   21330
   21278   21277   21329   21331   21278   21277   21279   21280
   21278   21277   21279   21281   21279   21277   21329   21330
   21279   21277   21329   21331   21279   21281   21283   21284
   21279   21281   21285   21287   21279   21281   21285   21286
   21329   21277   21279   21280   21280   21279   21281   21283
   21280   21279   21281   21282   21280   21279   21281   21285
   21329   21277   21279   21281   21281   21285   21287   21288
   21281   21285   21287   21289   21282   21281   21283   21284
   21282   21281   21285   21287   21282   21281   21285   21286
   21283   21281   21285   21287   21283   21281   21285   21286
   21285   21281   21283   21284   21285   21287   21289   21291
   21285   21287   21289   21290   21285   21287   21289   21292
   21286   21285   21287   21288   21286   21285   21287   21289
   21287   21289   21292   21294   21287   21289   21292   21293
   21287   21289   21292   21295   21288   21287   21289   21291
   21288   21287   21289   21290   21288   21287   21289   21292
   21289   21292   21295   21297   21289   21292   21295   21296
   21289   21292   21295   21298   21290   21289   21292   21294
   21290   21289   21292   21293   21290   21289   21292   21295
   21291   21289   21292   21294   21291   21289   21292   21293
   21291   21289   21292   21295   21292   21295   21298   21300
   21292   21295   21298   21299   21292   21295   21298   21301
   21293   21292   21295   21297   21293   21292   21295   21296
   21293   21292   21295   21298   21294   21292   21295   21297
   21294   21292   21295   21296   21294   21292   21295   21298
   21295   21298   21301   21303   21295   21298   21301   21302
   21295   21298   21301   21304   21296   21295   21298   21300
   21296   21295   21298   21299   21296   21295   21298   21301
   21297   21295   21298   21300   21297   21295   21298   21299
   21297   21295   21298   21301   21298   21301   21304   21306
   21298   21301   21304   21305   21298   21301   21304   21307
   21299   21298   21301   21303   21299   21298   21301   21302
   21299   21298   21301   21304   21300   21298   21301   21303
   21300   21298   21301   21302   21300   21298   21301   21304
   21301   21304   21307   21309   21301   21304   21307   21308
   21301   21304   21307   21310   21302   21301   21304   21306
   21302   21301   21304   21305   21302   21301   21304   21307
   21303   21301   21304   21306   21303   21301   21304   21305
   21303   21301   21304   21307   21304   21307   21310   21312
   21304   21307   21310   21311   21304   21307   21310   21313
   21305   21304   21307   21309   21305   21304   21307   21308
   21305   21304   21307   21310   21306   21304   21307   21309
   21306   21304   21307   21308   21306   21304   21307   21310
   21307   21310   21313   21315   21307   21310   21313   21314
   21307   21310   21313   21316   21308   21307   21310   21312
   21308   21307   21310   21311   21308   21307   21310   21313
   21309   21307   21310   21312   21309   21307   21310   21311
   21309   21307   21310   21313   21310   21313   21316   21318
   21310   21313   21316   21317   21310   21313   21316   21319
   21311   21310   21313   21315   21311   21310   21313   21314
   21311   21310   21313   21316   21312   21310   21313   21315
   21312   21310   21313   21314   21312   21310   21313   21316
   21313   21316   21319   21321   21313   21316   21319   21320
   21313   21316   21319   21322   21314   21313   21316   21318
   21314   21313   21316   21317   21314   21313   21316   21319
   21315   21313   21316   21318   21315   21313   21316   21317
   21315   21313   21316   21319   21316   21319   21322   21324
   21316   21319   21322   21323   21316   21319   21322   21325
   21317   21316   21319   21321   21317   21316   21319   21320
   21317   21316   21319   21322   21318   21316   21319   21321
   21318   21316   21319   21320   21318   21316   21319   21322
   21319   21322   21325   21328   21319   21322   21325   21327
   21319   21322   21325   21326   21320   21319   21322   21324
   21320   21319   21322   21323   21320   21319   21322   21325
   21321   21319   21322   21324   21321   21319   21322   21323
   21321   21319   21322   21325   21323   21322   21325   21328
   21323   21322   21325   21327   21323   21322   21325   21326
   21324   21322   21325   21328   21324   21322   21325   21327
   21324   21322   21325   21326   21329   21331   21334   21337
   21329   21331   21334   21336   21329   21331   21334   21335
   21330   21329   21331   21334   21330   21329   21331   21333
   21330   21329   21331   21332   21331   21334   21337   21340
   21331   21334   21337   21339   21331   21334   21337   21338
   21332   21331   21334   21337   21332   21331   21334   21336
   21332   21331   21334   21335   21333   21331   21334   21337
   21333   21331   21334   21336   21333   21331   21334   21335
   21334   21337   21340   21343   21334   21337   21340   21342
   21334   21337   21340   21341   21335   21334   21337   21340
   21335   21334   21337   21339   21335   21334   21337   21338
   21336   21334   21337   21340   21336   21334   21337   21339
   21336   21334   21337   21338   21337   21340   21343   21346
   21337   21340   21343   21345   21337   21340   21343   21344
   21338   21337   21340   21343   21338   21337   21340   21342
   21338   21337   21340   21341   21339   21337   21340   21343
   21339   21337   21340   21342   21339   21337   21340   21341
   21340   21343   21346   21349   21340   21343   21346   21348
   21340   21343   21346   21347   21341   21340   21343   21346
   21341   21340   21343   21345   21341   21340   21343   21344
   21342   21340   21343   21346   21342   21340   21343   21345
   21342   21340   21343   21344   21343   21346   21349   21352
   21343   21346   21349   21351   21343   21346   21349   21350
   21344   21343   21346   21349   21344   21343   21346   21348
   21344   21343   21346   21347   21345   21343   21346   21349
   21345   21343   21346   21348   21345   21343   21346   21347
   21346   21349   21352   21355   21346   21349   21352   21354
   21346   21349   21352   21353   21347   21346   21349   21352
   21347   21346   21349   21351   21347   21346   21349   21350
   21348   21346   21349   21352   21348   21346   21349   21351
   21348   21346   21349   21350   21349   21352   21355   21358
   21349   21352   21355   21357   21349   21352   21355   21356
   21350   21349   21352   21355   21350   21349   21352   21354
   21350   21349   21352   21353   21351   21349   21352   21355
   21351   21349   21352   21354   21351   21349   21352   21353
   21352   21355   21358   21361   21352   21355   21358   21360
   21352   21355   21358   21359   21353   21352   21355   21358
   21353   21352   21355   21357   21353   21352   21355   21356
   21354   21352   21355   21358   21354   21352   21355   21357
   21354   21352   21355   21356   21355   21358   21361   21364
   21355   21358   21361   21363   21355   21358   21361   21362
   21356   21355   21358   21361   21356   21355   21358   21360
   21356   21355   21358   21359   21357   21355   21358   21361
   21357   21355   21358   21360   21357   21355   21358   21359
   21358   21361   21364   21367   21358   21361   21364   21366
   21358   21361   21364   21365   21359   21358   21361   21364
   21359   21358   21361   21363   21359   21358   21361   21362
   21360   21358   21361   21364   21360   21358   21361   21363
   21360   21358   21361   21362   21361   21364   21367   21370
   21361   21364   21367   21369   21361   21364   21367   21368
   21362   21361   21364   21367   21362   21361   21364   21366
   21362   21361   21364   21365   21363   21361   21364   21367
   21363   21361   21364   21366   21363   21361   21364   21365
   21364   21367   21370   21373   21364   21367   21370   21372
   21364   21367   21370   21371   21365   21364   21367   21370
   21365   21364   21367   21369   21365   21364   21367   21368
   21366   21364   21367   21370   21366   21364   21367   21369
   21366   21364   21367   21368   21367   21370   21373   21376
   21367   21370   21373   21375   21367   21370   21373   21374
   21368   21367   21370   21373   21368   21367   21370   21372
   21368   21367   21370   21371   21369   21367   21370   21373
   21369   21367   21370   21372   21369   21367   21370   21371
   21371   21370   21373   21376   21371   21370   21373   21375
   21371   21370   21373   21374   21372   21370   21373   21376
   21372   21370   21373   21375   21372   21370   21373   21374
   21377   21381   21384   21385   21377   21381   21384   21415
   21415   21420   21423   21377   21422   21420   21423   21377
   21421   21420   21423   21377   21378   21377   21381   21384
   21378   21377   21381   21383   21378   21377   21381   21382
   21378   21377   21423   21420   21378   21377   21423   21425
   21378   21377   21423   21424   21378   21377   21379   21380
   21379   21377   21381   21384   21379   21377   21381   21383
   21379   21377   21381   21382   21379   21377   21423   21420
   21379   21377   21423   21425   21379   21377   21423   21424
   21381   21377   21379   21380   21423   21377   21379   21380
   21381   21384   21385   21387   21381   21384   21385   21386
   21381   21384   21415   21413   21381   21384   21415   21416
   21381   21384   21415   21420   21381   21377   21423   21420
   21381   21377   21423   21425   21381   21377   21423   21424
   21382   21381   21384   21385   21382   21381   21384   21415
   21423   21377   21381   21382   21383   21381   21384   21385
   21383   21381   21384   21415   21423   21377   21381   21383
   21384   21385   21387   21390   21384   21385   21387   21389
   21384   21385   21387   21388   21410   21413   21415   21384
   21414   21413   21415   21384   21390   21413   21415   21384
   21384   21415   21416   21419   21384   21415   21416   21418
   21384   21415   21416   21417   21384   21415   21420   21422
   21384   21415   21420   21421   21384   21415   21420   21423
   21423   21377   21381   21384   21385   21387   21390   21392
   21385   21387   21390   21413   21385   21387   21390   21391
   21385   21384   21415   21413   21385   21384   21415   21416
   21385   21384   21415   21420   21386   21385   21387   21390
   21386   21385   21387   21389   21386   21385   21387   21388
   21415   21384   21385   21386   21387   21390   21392   21394
   21387   21390   21392   21402   21387   21390   21392   21393
   21387   21390   21413   21410   21387   21390   21413   21415
   21387   21390   21413   21414   21415   21384   21385   21387
   21388   21387   21390   21392   21388   21387   21390   21413
   21388   21387   21390   21391   21389   21387   21390   21392
   21389   21387   21390   21413   21389   21387   21390   21391
   21390   21392   21394   21397   21390   21392   21394   21396
   21390   21392   21394   21395   21390   21392   21402   21400
   21390   21392   21402   21403   21390   21392   21402   21407
   21412   21410   21413   21390   21411   21410   21413   21390
   21407   21410   21413   21390   21390   21413   21415   21416
   21390   21413   21415   21420   21391   21390   21392   21394
   21391   21390   21392   21402   21391   21390   21392   21393
   21391   21390   21413   21410   21391   21390   21413   21415
   21391   21390   21413   21414   21392   21394   21397   21400
   21392   21394   21397   21399   21392   21394   21397   21398
   21426   21400   21402   21392   21401   21400   21402   21392
   21397   21400   21402   21392   21392   21402   21403   21406
   21392   21402   21403   21405   21392   21402   21403   21404
   21392   21402   21407   21410   21392   21402   21407   21409
   21392   21402   21407   21408   21392   21390   21413   21410
   21392   21390   21413   21415   21392   21390   21413   21414
   21393   21392   21394   21397   21393   21392   21394   21396
   21393   21392   21394   21395   21393   21392   21402   21400
   21393   21392   21402   21403   21393   21392   21402   21407
   21413   21390   21392   21393   21394   21397   21400   21426
   21394   21397   21400   21402   21394   21397   21400   21401
   21394   21392   21402   21400   21394   21392   21402   21403
   21394   21392   21402   21407   21413   21390   21392   21394
   21395   21394   21397   21400   21395   21394   21397   21399
   21395   21394   21397   21398   21402   21392   21394   21395
   21396   21394   21397   21400   21396   21394   21397   21399
   21396   21394   21397   21398   21402   21392   21394   21396
   21397   21400   21426   21432   21397   21400   21426   21428
   21397   21400   21426   21427   21397   21400   21402   21403
   21397   21400   21402   21407   21402   21392   21394   21397
   21398   21397   21400   21426   21398   21397   21400   21402
   21398   21397   21400   21401   21399   21397   21400   21426
   21399   21397   21400   21402   21399   21397   21400   21401
   21400   21426   21432   21435   21400   21426   21432   21434
   21400   21426   21432   21433   21400   21426   21428   21431
   21400   21426   21428   21430   21400   21426   21428   21429
   21400   21402   21403   21406   21400   21402   21403   21405
   21400   21402   21403   21404   21400   21402   21407   21410
   21400   21402   21407   21409   21400   21402   21407   21408
   21401   21400   21426   21432   21401   21400   21426   21428
   21401   21400   21426   21427   21401   21400   21402   21403
   21401   21400   21402   21407   21402   21400   21426   21432
   21402   21400   21426   21428   21402   21400   21426   21427
   21402   21407   21410   21413   21402   21407   21410   21412
   21402   21407   21410   21411   21413   21390   21392   21402
   21426   21400   21402   21403   21403   21402   21407   21410
   21403   21402   21407   21409   21403   21402   21407   21408
   21407   21402   21403   21404   21407   21402   21403   21405
   21407   21402   21403   21406   21407   21410   21413   21415
   21407   21410   21413   21414   21426   21400   21402   21407
   21408   21407   21410   21413   21408   21407   21410   21412
   21408   21407   21410   21411   21409   21407   21410   21413
   21409   21407   21410   21412   21409   21407   21410   21411
   21410   21413   21415   21416   21410   21413   21415   21420
   21411   21410   21413   21415   21411   21410   21413   21414
   21412   21410   21413   21415   21412   21410   21413   21414
   21413   21415   21416   21419   21413   21415   21416   21418
   21413   21415   21416   21417   21413   21415   21420   21422
   21413   21415   21420   21421   21413   21415   21420   21423
   21414   21413   21415   21416   21414   21413   21415   21420
   21415   21420   21423   21425   21415   21420   21423   21424
   21416   21415   21420   21422   21416   21415   21420   21421
   21416   21415   21420   21423   21420   21415   21416   21417
   21420   21415   21416   21418   21420   21415   21416   21419
   21421   21420   21423   21425   21421   21420   21423   21424
   21422   21420   21423   21425   21422   21420   21423   21424
   21426   21432   21435   21438   21426   21432   21435   21437
   21426   21432   21435   21436   21427   21426   21432   21435
   21427   21426   21432   21434   21427   21426   21432   21433
   21427   21426   21428   21431   21427   21426   21428   21430
   21427   21426   21428   21429   21428   21426   21432   21435
   21428   21426   21432   21434   21428   21426   21432   21433
   21432   21426   21428   21429   21432   21426   21428   21430
   21432   21426   21428   21431   21432   21435   21438   21441
   21432   21435   21438   21440   21432   21435   21438   21439
   21433   21432   21435   21438   21433   21432   21435   21437
   21433   21432   21435   21436   21434   21432   21435   21438
   21434   21432   21435   21437   21434   21432   21435   21436
   21435   21438   21441   21447   21435   21438   21441   21443
   21435   21438   21441   21442   21436   21435   21438   21441
   21436   21435   21438   21440   21436   21435   21438   21439
   21437   21435   21438   21441   21437   21435   21438   21440
   21437   21435   21438   21439   21438   21441   21447   21450
   21438   21441   21447   21449   21438   21441   21447   21448
   21438   21441   21443   21446   21438   21441   21443   21445
   21438   21441   21443   21444   21439   21438   21441   21447
   21439   21438   21441   21443   21439   21438   21441   21442
   21440   21438   21441   21447   21440   21438   21441   21443
   21440   21438   21441   21442   21442   21441   21447   21450
   21442   21441   21447   21449   21442   21441   21447   21448
   21442   21441   21443   21446   21442   21441   21443   21445
   21442   21441   21443   21444   21443   21441   21447   21450
   21443   21441   21447   21449   21443   21441   21447   21448
   21447   21441   21443   21444   21447   21441   21443   21445
   21447   21441   21443   21446   21451   21455   21458   21459
   21451   21455   21458   21489   21489   21494   21497   21451
   21496   21494   21497   21451   21495   21494   21497   21451
   21452   21451   21455   21458   21452   21451   21455   21457
   21452   21451   21455   21456   21452   21451   21497   21494
   21452   21451   21497   21499   21452   21451   21497   21498
   21452   21451   21453   21454   21453   21451   21455   21458
   21453   21451   21455   21457   21453   21451   21455   21456
   21453   21451   21497   21494   21453   21451   21497   21499
   21453   21451   21497   21498   21455   21451   21453   21454
   21497   21451   21453   21454   21455   21458   21459   21461
   21455   21458   21459   21460   21455   21458   21489   21487
   21455   21458   21489   21490   21455   21458   21489   21494
   21455   21451   21497   21494   21455   21451   21497   21499
   21455   21451   21497   21498   21456   21455   21458   21459
   21456   21455   21458   21489   21497   21451   21455   21456
   21457   21455   21458   21459   21457   21455   21458   21489
   21497   21451   21455   21457   21458   21459   21461   21464
   21458   21459   21461   21463   21458   21459   21461   21462
   21484   21487   21489   21458   21488   21487   21489   21458
   21464   21487   21489   21458   21458   21489   21490   21493
   21458   21489   21490   21492   21458   21489   21490   21491
   21458   21489   21494   21496   21458   21489   21494   21495
   21458   21489   21494   21497   21497   21451   21455   21458
   21459   21461   21464   21466   21459   21461   21464   21487
   21459   21461   21464   21465   21459   21458   21489   21487
   21459   21458   21489   21490   21459   21458   21489   21494
   21460   21459   21461   21464   21460   21459   21461   21463
   21460   21459   21461   21462   21489   21458   21459   21460
   21461   21464   21466   21468   21461   21464   21466   21476
   21461   21464   21466   21467   21461   21464   21487   21484
   21461   21464   21487   21489   21461   21464   21487   21488
   21489   21458   21459   21461   21462   21461   21464   21466
   21462   21461   21464   21487   21462   21461   21464   21465
   21463   21461   21464   21466   21463   21461   21464   21487
   21463   21461   21464   21465   21464   21466   21468   21471
   21464   21466   21468   21470   21464   21466   21468   21469
   21464   21466   21476   21474   21464   21466   21476   21477
   21464   21466   21476   21481   21486   21484   21487   21464
   21485   21484   21487   21464   21481   21484   21487   21464
   21464   21487   21489   21490   21464   21487   21489   21494
   21465   21464   21466   21468   21465   21464   21466   21476
   21465   21464   21466   21467   21465   21464   21487   21484
   21465   21464   21487   21489   21465   21464   21487   21488
   21466   21468   21471   21474   21466   21468   21471   21473
   21466   21468   21471   21472   21500   21474   21476   21466
   21475   21474   21476   21466   21471   21474   21476   21466
   21466   21476   21477   21480   21466   21476   21477   21479
   21466   21476   21477   21478   21466   21476   21481   21484
   21466   21476   21481   21483   21466   21476   21481   21482
   21466   21464   21487   21484   21466   21464   21487   21489
   21466   21464   21487   21488   21467   21466   21468   21471
   21467   21466   21468   21470   21467   21466   21468   21469
   21467   21466   21476   21474   21467   21466   21476   21477
   21467   21466   21476   21481   21487   21464   21466   21467
   21468   21471   21474   21500   21468   21471   21474   21476
   21468   21471   21474   21475   21468   21466   21476   21474
   21468   21466   21476   21477   21468   21466   21476   21481
   21487   21464   21466   21468   21469   21468   21471   21474
   21469   21468   21471   21473   21469   21468   21471   21472
   21476   21466   21468   21469   21470   21468   21471   21474
   21470   21468   21471   21473   21470   21468   21471   21472
   21476   21466   21468   21470   21471   21474   21500   21506
   21471   21474   21500   21502   21471   21474   21500   21501
   21471   21474   21476   21477   21471   21474   21476   21481
   21476   21466   21468   21471   21472   21471   21474   21500
   21472   21471   21474   21476   21472   21471   21474   21475
   21473   21471   21474   21500   21473   21471   21474   21476
   21473   21471   21474   21475   21474   21500   21506   21509
   21474   21500   21506   21508   21474   21500   21506   21507
   21474   21500   21502   21505   21474   21500   21502   21504
   21474   21500   21502   21503   21474   21476   21477   21480
   21474   21476   21477   21479   21474   21476   21477   21478
   21474   21476   21481   21484   21474   21476   21481   21483
   21474   21476   21481   21482   21475   21474   21500   21506
   21475   21474   21500   21502   21475   21474   21500   21501
   21475   21474   21476   21477   21475   21474   21476   21481
   21476   21474   21500   21506   21476   21474   21500   21502
   21476   21474   21500   21501   21476   21481   21484   21487
   21476   21481   21484   21486   21476   21481   21484   21485
   21487   21464   21466   21476   21500   21474   21476   21477
   21477   21476   21481   21484   21477   21476   21481   21483
   21477   21476   21481   21482   21481   21476   21477   21478
   21481   21476   21477   21479   21481   21476   21477   21480
   21481   21484   21487   21489   21481   21484   21487   21488
   21500   21474   21476   21481   21482   21481   21484   21487
   21482   21481   21484   21486   21482   21481   21484   21485
   21483   21481   21484   21487   21483   21481   21484   21486
   21483   21481   21484   21485   21484   21487   21489   21490
   21484   21487   21489   21494   21485   21484   21487   21489
   21485   21484   21487   21488   21486   21484   21487   21489
   21486   21484   21487   21488   21487   21489   21490   21493
   21487   21489   21490   21492   21487   21489   21490   21491
   21487   21489   21494   21496   21487   21489   21494   21495
   21487   21489   21494   21497   21488   21487   21489   21490
   21488   21487   21489   21494   21489   21494   21497   21499
   21489   21494   21497   21498   21490   21489   21494   21496
   21490   21489   21494   21495   21490   21489   21494   21497
   21494   21489   21490   21491   21494   21489   21490   21492
   21494   21489   21490   21493   21495   21494   21497   21499
   21495   21494   21497   21498   21496   21494   21497   21499
   21496   21494   21497   21498   21500   21506   21509   21512
   21500   21506   21509   21511   21500   21506   21509   21510
   21501   21500   21506   21509   21501   21500   21506   21508
   21501   21500   21506   21507   21501   21500   21502   21505
   21501   21500   21502   21504   21501   21500   21502   21503
   21502   21500   21506   21509   21502   21500   21506   21508
   21502   21500   21506   21507   21506   21500   21502   21503
   21506   21500   21502   21504   21506   21500   21502   21505
   21506   21509   21512   21515   21506   21509   21512   21514
   21506   21509   21512   21513   21507   21506   21509   21512
   21507   21506   21509   21511   21507   21506   21509   21510
   21508   21506   21509   21512   21508   21506   21509   21511
   21508   21506   21509   21510   21509   21512   21515   21521
   21509   21512   21515   21517   21509   21512   21515   21516
   21510   21509   21512   21515   21510   21509   21512   21514
   21510   21509   21512   21513   21511   21509   21512   21515
   21511   21509   21512   21514   21511   21509   21512   21513
   21512   21515   21521   21524   21512   21515   21521   21523
   21512   21515   21521   21522   21512   21515   21517   21520
   21512   21515   21517   21519   21512   21515   21517   21518
   21513   21512   21515   21521   21513   21512   21515   21517
   21513   21512   21515   21516   21514   21512   21515   21521
   21514   21512   21515   21517   21514   21512   21515   21516
   21516   21515   21521   21524   21516   21515   21521   21523
   21516   21515   21521   21522   21516   21515   21517   21520
   21516   21515   21517   21519   21516   21515   21517   21518
   21517   21515   21521   21524   21517   21515   21521   21523
   21517   21515   21521   21522   21521   21515   21517   21518
   21521   21515   21517   21519   21521   21515   21517   21520
   21525   21529   21532   21533   21525   21529   21532   21563
   21563   21568   21571   21525   21570   21568   21571   21525
   21569   21568   21571   21525   21526   21525   21529   21532
   21526   21525   21529   21531   21526   21525   21529   21530
   21526   21525   21571   21568   21526   21525   21571   21573
   21526   21525   21571   21572   21526   21525   21527   21528
   21527   21525   21529   21532   21527   21525   21529   21531
   21527   21525   21529   21530   21527   21525   21571   21568
   21527   21525   21571   21573   21527   21525   21571   21572
   21529   21525   21527   21528   21571   21525   21527   21528
   21529   21532   21533   21535   21529   21532   21533   21534
   21529   21532   21563   21561   21529   21532   21563   21564
   21529   21532   21563   21568   21529   21525   21571   21568
   21529   21525   21571   21573   21529   21525   21571   21572
   21530   21529   21532   21533   21530   21529   21532   21563
   21571   21525   21529   21530   21531   21529   21532   21533
   21531   21529   21532   21563   21571   21525   21529   21531
   21532   21533   21535   21538   21532   21533   21535   21537
   21532   21533   21535   21536   21558   21561   21563   21532
   21562   21561   21563   21532   21538   21561   21563   21532
   21532   21563   21564   21567   21532   21563   21564   21566
   21532   21563   21564   21565   21532   21563   21568   21570
   21532   21563   21568   21569   21532   21563   21568   21571
   21571   21525   21529   21532   21533   21535   21538   21540
   21533   21535   21538   21561   21533   21535   21538   21539
   21533   21532   21563   21561   21533   21532   21563   21564
   21533   21532   21563   21568   21534   21533   21535   21538
   21534   21533   21535   21537   21534   21533   21535   21536
   21563   21532   21533   21534   21535   21538   21540   21542
   21535   21538   21540   21550   21535   21538   21540   21541
   21535   21538   21561   21558   21535   21538   21561   21563
   21535   21538   21561   21562   21563   21532   21533   21535
   21536   21535   21538   21540   21536   21535   21538   21561
   21536   21535   21538   21539   21537   21535   21538   21540
   21537   21535   21538   21561   21537   21535   21538   21539
   21538   21540   21542   21545   21538   21540   21542   21544
   21538   21540   21542   21543   21538   21540   21550   21548
   21538   21540   21550   21551   21538   21540   21550   21555
   21560   21558   21561   21538   21559   21558   21561   21538
   21555   21558   21561   21538   21538   21561   21563   21564
   21538   21561   21563   21568   21539   21538   21540   21542
   21539   21538   21540   21550   21539   21538   21540   21541
   21539   21538   21561   21558   21539   21538   21561   21563
   21539   21538   21561   21562   21540   21542   21545   21548
   21540   21542   21545   21547   21540   21542   21545   21546
   21574   21548   21550   21540   21549   21548   21550   21540
   21545   21548   21550   21540   21540   21550   21551   21554
   21540   21550   21551   21553   21540   21550   21551   21552
   21540   21550   21555   21558   21540   21550   21555   21557
   21540   21550   21555   21556   21540   21538   21561   21558
   21540   21538   21561   21563   21540   21538   21561   21562
   21541   21540   21542   21545   21541   21540   21542   21544
   21541   21540   21542   21543   21541   21540   21550   21548
   21541   21540   21550   21551   21541   21540   21550   21555
   21561   21538   21540   21541   21542   21545   21548   21574
   21542   21545   21548   21550   21542   21545   21548   21549
   21542   21540   21550   21548   21542   21540   21550   21551
   21542   21540   21550   21555   21561   21538   21540   21542
   21543   21542   21545   21548   21543   21542   21545   21547
   21543   21542   21545   21546   21550   21540   21542   21543
   21544   21542   21545   21548   21544   21542   21545   21547
   21544   21542   21545   21546   21550   21540   21542   21544
   21545   21548   21574   21580   21545   21548   21574   21576
   21545   21548   21574   21575   21545   21548   21550   21551
   21545   21548   21550   21555   21550   21540   21542   21545
   21546   21545   21548   21574   21546   21545   21548   21550
   21546   21545   21548   21549   21547   21545   21548   21574
   21547   21545   21548   21550   21547   21545   21548   21549
   21548   21574   21580   21583   21548   21574   21580   21582
   21548   21574   21580   21581   21548   21574   21576   21579
   21548   21574   21576   21578   21548   21574   21576   21577
   21548   21550   21551   21554   21548   21550   21551   21553
   21548   21550   21551   21552   21548   21550   21555   21558
   21548   21550   21555   21557   21548   21550   21555   21556
   21549   21548   21574   21580   21549   21548   21574   21576
   21549   21548   21574   21575   21549   21548   21550   21551
   21549   21548   21550   21555   21550   21548   21574   21580
   21550   21548   21574   21576   21550   21548   21574   21575
   21550   21555   21558   21561   21550   21555   21558   21560
   21550   21555   21558   21559   21561   21538   21540   21550
   21574   21548   21550   21551   21551   21550   21555   21558
   21551   21550   21555   21557   21551   21550   21555   21556
   21555   21550   21551   21552   21555   21550   21551   21553
   21555   21550   21551   21554   21555   21558   21561   21563
   21555   21558   21561   21562   21574   21548   21550   21555
   21556   21555   21558   21561   21556   21555   21558   21560
   21556   21555   21558   21559   21557   21555   21558   21561
   21557   21555   21558   21560   21557   21555   21558   21559
   21558   21561   21563   21564   21558   21561   21563   21568
   21559   21558   21561   21563   21559   21558   21561   21562
   21560   21558   21561   21563   21560   21558   21561   21562
   21561   21563   21564   21567   21561   21563   21564   21566
   21561   21563   21564   21565   21561   21563   21568   21570
   21561   21563   21568   21569   21561   21563   21568   21571
   21562   21561   21563   21564   21562   21561   21563   21568
   21563   21568   21571   21573   21563   21568   21571   21572
   21564   21563   21568   21570   21564   21563   21568   21569
   21564   21563   21568   21571   21568   21563   21564   21565
   21568   21563   21564   21566   21568   21563   21564   21567
   21569   21568   21571   21573   21569   21568   21571   21572
   21570   21568   21571   21573   21570   21568   21571   21572
   21574   21580   21583   21586   21574   21580   21583   21585
   21574   21580   21583   21584   21575   21574   21580   21583
   21575   21574   21580   21582   21575   21574   21580   21581
   21575   21574   21576   21579   21575   21574   21576   21578
   21575   21574   21576   21577   21576   21574   21580   21583
   21576   21574   21580   21582   21576   21574   21580   21581
   21580   21574   21576   21577   21580   21574   21576   21578
   21580   21574   21576   21579   21580   21583   21586   21589
   21580   21583   21586   21588   21580   21583   21586   21587
   21581   21580   21583   21586   21581   21580   21583   21585
   21581   21580   21583   21584   21582   21580   21583   21586
   21582   21580   21583   21585   21582   21580   21583   21584
   21583   21586   21589   21595   21583   21586   21589   21591
   21583   21586   21589   21590   21584   21583   21586   21589
   21584   21583   21586   21588   21584   21583   21586   21587
   21585   21583   21586   21589   21585   21583   21586   21588
   21585   21583   21586   21587   21586   21589   21595   21598
   21586   21589   21595   21597   21586   21589   21595   21596
   21586   21589   21591   21594   21586   21589   21591   21593
   21586   21589   21591   21592   21587   21586   21589   21595
   21587   21586   21589   21591   21587   21586   21589   21590
   21588   21586   21589   21595   21588   21586   21589   21591
   21588   21586   21589   21590   21590   21589   21595   21598
   21590   21589   21595   21597   21590   21589   21595   21596
   21590   21589   21591   21594   21590   21589   21591   21593
   21590   21589   21591   21592   21591   21589   21595   21598
   21591   21589   21595   21597   21591   21589   21595   21596
   21595   21589   21591   21592   21595   21589   21591   21593
   21595   21589   21591   21594   21599   21603   21606   21607
   21599   21603   21606   21637   21637   21642   21645   21599
   21644   21642   21645   21599   21643   21642   21645   21599
   21600   21599   21603   21606   21600   21599   21603   21605
   21600   21599   21603   21604   21600   21599   21645   21642
   21600   21599   21645   21647   21600   21599   21645   21646
   21600   21599   21601   21602   21601   21599   21603   21606
   21601   21599   21603   21605   21601   21599   21603   21604
   21601   21599   21645   21642   21601   21599   21645   21647
   21601   21599   21645   21646   21603   21599   21601   21602
   21645   21599   21601   21602   21603   21606   21607   21609
   21603   21606   21607   21608   21603   21606   21637   21635
   21603   21606   21637   21638   21603   21606   21637   21642
   21603   21599   21645   21642   21603   21599   21645   21647
   21603   21599   21645   21646   21604   21603   21606   21607
   21604   21603   21606   21637   21645   21599   21603   21604
   21605   21603   21606   21607   21605   21603   21606   21637
   21645   21599   21603   21605   21606   21607   21609   21612
   21606   21607   21609   21611   21606   21607   21609   21610
   21632   21635   21637   21606   21636   21635   21637   21606
   21612   21635   21637   21606   21606   21637   21638   21641
   21606   21637   21638   21640   21606   21637   21638   21639
   21606   21637   21642   21644   21606   21637   21642   21643
   21606   21637   21642   21645   21645   21599   21603   21606
   21607   21609   21612   21614   21607   21609   21612   21635
   21607   21609   21612   21613   21607   21606   21637   21635
   21607   21606   21637   21638   21607   21606   21637   21642
   21608   21607   21609   21612   21608   21607   21609   21611
   21608   21607   21609   21610   21637   21606   21607   21608
   21609   21612   21614   21616   21609   21612   21614   21624
   21609   21612   21614   21615   21609   21612   21635   21632
   21609   21612   21635   21637   21609   21612   21635   21636
   21637   21606   21607   21609   21610   21609   21612   21614
   21610   21609   21612   21635   21610   21609   21612   21613
   21611   21609   21612   21614   21611   21609   21612   21635
   21611   21609   21612   21613   21612   21614   21616   21619
   21612   21614   21616   21618   21612   21614   21616   21617
   21612   21614   21624   21622   21612   21614   21624   21625
   21612   21614   21624   21629   21634   21632   21635   21612
   21633   21632   21635   21612   21629   21632   21635   21612
   21612   21635   21637   21638   21612   21635   21637   21642
   21613   21612   21614   21616   21613   21612   21614   21624
   21613   21612   21614   21615   21613   21612   21635   21632
   21613   21612   21635   21637   21613   21612   21635   21636
   21614   21616   21619   21622   21614   21616   21619   21621
   21614   21616   21619   21620   21648   21622   21624   21614
   21623   21622   21624   21614   21619   21622   21624   21614
   21614   21624   21625   21628   21614   21624   21625   21627
   21614   21624   21625   21626   21614   21624   21629   21632
   21614   21624   21629   21631   21614   21624   21629   21630
   21614   21612   21635   21632   21614   21612   21635   21637
   21614   21612   21635   21636   21615   21614   21616   21619
   21615   21614   21616   21618   21615   21614   21616   21617
   21615   21614   21624   21622   21615   21614   21624   21625
   21615   21614   21624   21629   21635   21612   21614   21615
   21616   21619   21622   21648   21616   21619   21622   21624
   21616   21619   21622   21623   21616   21614   21624   21622
   21616   21614   21624   21625   21616   21614   21624   21629
   21635   21612   21614   21616   21617   21616   21619   21622
   21617   21616   21619   21621   21617   21616   21619   21620
   21624   21614   21616   21617   21618   21616   21619   21622
   21618   21616   21619   21621   21618   21616   21619   21620
   21624   21614   21616   21618   21619   21622   21648   21654
   21619   21622   21648   21650   21619   21622   21648   21649
   21619   21622   21624   21625   21619   21622   21624   21629
   21624   21614   21616   21619   21620   21619   21622   21648
   21620   21619   21622   21624   21620   21619   21622   21623
   21621   21619   21622   21648   21621   21619   21622   21624
   21621   21619   21622   21623   21622   21648   21654   21657
   21622   21648   21654   21656   21622   21648   21654   21655
   21622   21648   21650   21653   21622   21648   21650   21652
   21622   21648   21650   21651   21622   21624   21625   21628
   21622   21624   21625   21627   21622   21624   21625   21626
   21622   21624   21629   21632   21622   21624   21629   21631
   21622   21624   21629   21630   21623   21622   21648   21654
   21623   21622   21648   21650   21623   21622   21648   21649
   21623   21622   21624   21625   21623   21622   21624   21629
   21624   21622   21648   21654   21624   21622   21648   21650
   21624   21622   21648   21649   21624   21629   21632   21635
   21624   21629   21632   21634   21624   21629   21632   21633
   21635   21612   21614   21624   21648   21622   21624   21625
   21625   21624   21629   21632   21625   21624   21629   21631
   21625   21624   21629   21630   21629   21624   21625   21626
   21629   21624   21625   21627   21629   21624   21625   21628
   21629   21632   21635   21637   21629   21632   21635   21636
   21648   21622   21624   21629   21630   21629   21632   21635
   21630   21629   21632   21634   21630   21629   21632   21633
   21631   21629   21632   21635   21631   21629   21632   21634
   21631   21629   21632   21633   21632   21635   21637   21638
   21632   21635   21637   21642   21633   21632   21635   21637
   21633   21632   21635   21636   21634   21632   21635   21637
   21634   21632   21635   21636   21635   21637   21638   21641
   21635   21637   21638   21640   21635   21637   21638   21639
   21635   21637   21642   21644   21635   21637   21642   21643
   21635   21637   21642   21645   21636   21635   21637   21638
   21636   21635   21637   21642   21637   21642   21645   21647
   21637   21642   21645   21646   21638   21637   21642   21644
   21638   21637   21642   21643   21638   21637   21642   21645
   21642   21637   21638   21639   21642   21637   21638   21640
   21642   21637   21638   21641   21643   21642   21645   21647
   21643   21642   21645   21646   21644   21642   21645   21647
   21644   21642   21645   21646   21648   21654   21657   21660
   21648   21654   21657   21659   21648   21654   21657   21658
   21649   21648   21654   21657   21649   21648   21654   21656
   21649   21648   21654   21655   21649   21648   21650   21653
   21649   21648   21650   21652   21649   21648   21650   21651
   21650   21648   21654   21657   21650   21648   21654   21656
   21650   21648   21654   21655   21654   21648   21650   21651
   21654   21648   21650   21652   21654   21648   21650   21653
   21654   21657   21660   21663   21654   21657   21660   21662
   21654   21657   21660   21661   21655   21654   21657   21660
   21655   21654   21657   21659   21655   21654   21657   21658
   21656   21654   21657   21660   21656   21654   21657   21659
   21656   21654   21657   21658   21657   21660   21663   21669
   21657   21660   21663   21665   21657   21660   21663   21664
   21658   21657   21660   21663   21658   21657   21660   21662
   21658   21657   21660   21661   21659   21657   21660   21663
   21659   21657   21660   21662   21659   21657   21660   21661
   21660   21663   21669   21672   21660   21663   21669   21671
   21660   21663   21669   21670   21660   21663   21665   21668
   21660   21663   21665   21667   21660   21663   21665   21666
   21661   21660   21663   21669   21661   21660   21663   21665
   21661   21660   21663   21664   21662   21660   21663   21669
   21662   21660   21663   21665   21662   21660   21663   21664
   21664   21663   21669   21672   21664   21663   21669   21671
   21664   21663   21669   21670   21664   21663   21665   21668
   21664   21663   21665   21667   21664   21663   21665   21666
   21665   21663   21669   21672   21665   21663   21669   21671
   21665   21663   21669   21670   21669   21663   21665   21666
   21669   21663   21665   21667   21669   21663   21665   21668
   21673   21677   21680   21681   21673   21677   21680   21711
   21711   21716   21719   21673   21718   21716   21719   21673
   21717   21716   21719   21673   21674   21673   21677   21680
   21674   21673   21677   21679   21674   21673   21677   21678
   21674   21673   21719   21716   21674   21673   21719   21721
   21674   21673   21719   21720   21674   21673   21675   21676
   21675   21673   21677   21680   21675   21673   21677   21679
   21675   21673   21677   21678   21675   21673   21719   21716
   21675   21673   21719   21721   21675   21673   21719   21720
   21677   21673   21675   21676   21719   21673   21675   21676
   21677   21680   21681   21683   21677   21680   21681   21682
   21677   21680   21711   21709   21677   21680   21711   21712
   21677   21680   21711   21716   21677   21673   21719   21716
   21677   21673   21719   21721   21677   21673   21719   21720
   21678   21677   21680   21681   21678   21677   21680   21711
   21719   21673   21677   21678   21679   21677   21680   21681
   21679   21677   21680   21711   21719   21673   21677   21679
   21680   21681   21683   21686   21680   21681   21683   21685
   21680   21681   21683   21684   21706   21709   21711   21680
   21710   21709   21711   21680   21686   21709   21711   21680
   21680   21711   21712   21715   21680   21711   21712   21714
   21680   21711   21712   21713   21680   21711   21716   21718
   21680   21711   21716   21717   21680   21711   21716   21719
   21719   21673   21677   21680   21681   21683   21686   21688
   21681   21683   21686   21709   21681   21683   21686   21687
   21681   21680   21711   21709   21681   21680   21711   21712
   21681   21680   21711   21716   21682   21681   21683   21686
   21682   21681   21683   21685   21682   21681   21683   21684
   21711   21680   21681   21682   21683   21686   21688   21690
   21683   21686   21688   21698   21683   21686   21688   21689
   21683   21686   21709   21706   21683   21686   21709   21711
   21683   21686   21709   21710   21711   21680   21681   21683
   21684   21683   21686   21688   21684   21683   21686   21709
   21684   21683   21686   21687   21685   21683   21686   21688
   21685   21683   21686   21709   21685   21683   21686   21687
   21686   21688   21690   21693   21686   21688   21690   21692
   21686   21688   21690   21691   21686   21688   21698   21696
   21686   21688   21698   21699   21686   21688   21698   21703
   21708   21706   21709   21686   21707   21706   21709   21686
   21703   21706   21709   21686   21686   21709   21711   21712
   21686   21709   21711   21716   21687   21686   21688   21690
   21687   21686   21688   21698   21687   21686   21688   21689
   21687   21686   21709   21706   21687   21686   21709   21711
   21687   21686   21709   21710   21688   21690   21693   21696
   21688   21690   21693   21695   21688   21690   21693   21694
   21722   21696   21698   21688   21697   21696   21698   21688
   21693   21696   21698   21688   21688   21698   21699   21702
   21688   21698   21699   21701   21688   21698   21699   21700
   21688   21698   21703   21706   21688   21698   21703   21705
   21688   21698   21703   21704   21688   21686   21709   21706
   21688   21686   21709   21711   21688   21686   21709   21710
   21689   21688   21690   21693   21689   21688   21690   21692
   21689   21688   21690   21691   21689   21688   21698   21696
   21689   21688   21698   21699   21689   21688   21698   21703
   21709   21686   21688   21689   21690   21693   21696   21722
   21690   21693   21696   21698   21690   21693   21696   21697
   21690   21688   21698   21696   21690   21688   21698   21699
   21690   21688   21698   21703   21709   21686   21688   21690
   21691   21690   21693   21696   21691   21690   21693   21695
   21691   21690   21693   21694   21698   21688   21690   21691
   21692   21690   21693   21696   21692   21690   21693   21695
   21692   21690   21693   21694   21698   21688   21690   21692
   21693   21696   21722   21728   21693   21696   21722   21724
   21693   21696   21722   21723   21693   21696   21698   21699
   21693   21696   21698   21703   21698   21688   21690   21693
   21694   21693   21696   21722   21694   21693   21696   21698
   21694   21693   21696   21697   21695   21693   21696   21722
   21695   21693   21696   21698   21695   21693   21696   21697
   21696   21722   21728   21731   21696   21722   21728   21730
   21696   21722   21728   21729   21696   21722   21724   21727
   21696   21722   21724   21726   21696   21722   21724   21725
   21696   21698   21699   21702   21696   21698   21699   21701
   21696   21698   21699   21700   21696   21698   21703   21706
   21696   21698   21703   21705   21696   21698   21703   21704
   21697   21696   21722   21728   21697   21696   21722   21724
   21697   21696   21722   21723   21697   21696   21698   21699
   21697   21696   21698   21703   21698   21696   21722   21728
   21698   21696   21722   21724   21698   21696   21722   21723
   21698   21703   21706   21709   21698   21703   21706   21708
   21698   21703   21706   21707   21709   21686   21688   21698
   21722   21696   21698   21699   21699   21698   21703   21706
   21699   21698   21703   21705   21699   21698   21703   21704
   21703   21698   21699   21700   21703   21698   21699   21701
   21703   21698   21699   21702   21703   21706   21709   21711
   21703   21706   21709   21710   21722   21696   21698   21703
   21704   21703   21706   21709   21704   21703   21706   21708
   21704   21703   21706   21707   21705   21703   21706   21709
   21705   21703   21706   21708   21705   21703   21706   21707
   21706   21709   21711   21712   21706   21709   21711   21716
   21707   21706   21709   21711   21707   21706   21709   21710
   21708   21706   21709   21711   21708   21706   21709   21710
   21709   21711   21712   21715   21709   21711   21712   21714
   21709   21711   21712   21713   21709   21711   21716   21718
   21709   21711   21716   21717   21709   21711   21716   21719
   21710   21709   21711   21712   21710   21709   21711   21716
   21711   21716   21719   21721   21711   21716   21719   21720
   21712   21711   21716   21718   21712   21711   21716   21717
   21712   21711   21716   21719   21716   21711   21712   21713
   21716   21711   21712   21714   21716   21711   21712   21715
   21717   21716   21719   21721   21717   21716   21719   21720
   21718   21716   21719   21721   21718   21716   21719   21720
   21722   21728   21731   21734   21722   21728   21731   21733
   21722   21728   21731   21732   21723   21722   21728   21731
   21723   21722   21728   21730   21723   21722   21728   21729
   21723   21722   21724   21727   21723   21722   21724   21726
   21723   21722   21724   21725   21724   21722   21728   21731
   21724   21722   21728   21730   21724   21722   21728   21729
   21728   21722   21724   21725   21728   21722   21724   21726
   21728   21722   21724   21727   21728   21731   21734   21737
   21728   21731   21734   21736   21728   21731   21734   21735
   21729   21728   21731   21734   21729   21728   21731   21733
   21729   21728   21731   21732   21730   21728   21731   21734
   21730   21728   21731   21733   21730   21728   21731   21732
   21731   21734   21737   21743   21731   21734   21737   21739
   21731   21734   21737   21738   21732   21731   21734   21737
   21732   21731   21734   21736   21732   21731   21734   21735
   21733   21731   21734   21737   21733   21731   21734   21736
   21733   21731   21734   21735   21734   21737   21743   21746
   21734   21737   21743   21745   21734   21737   21743   21744
   21734   21737   21739   21742   21734   21737   21739   21741
   21734   21737   21739   21740   21735   21734   21737   21743
   21735   21734   21737   21739   21735   21734   21737   21738
   21736   21734   21737   21743   21736   21734   21737   21739
   21736   21734   21737   21738   21738   21737   21743   21746
   21738   21737   21743   21745   21738   21737   21743   21744
   21738   21737   21739   21742   21738   21737   21739   21741
   21738   21737   21739   21740   21739   21737   21743   21746
   21739   21737   21743   21745   21739   21737   21743   21744
   21743   21737   21739   21740   21743   21737   21739   21741
   21743   21737   21739   21742   21747   21751   21754   21755
   21747   21751   21754   21785   21785   21790   21793   21747
   21792   21790   21793   21747   21791   21790   21793   21747
   21748   21747   21751   21754   21748   21747   21751   21753
   21748   21747   21751   21752   21748   21747   21793   21790
   21748   21747   21793   21795   21748   21747   21793   21794
   21748   21747   21749   21750   21749   21747   21751   21754
   21749   21747   21751   21753   21749   21747   21751   21752
   21749   21747   21793   21790   21749   21747   21793   21795
   21749   21747   21793   21794   21751   21747   21749   21750
   21793   21747   21749   21750   21751   21754   21755   21757
   21751   21754   21755   21756   21751   21754   21785   21783
   21751   21754   21785   21786   21751   21754   21785   21790
   21751   21747   21793   21790   21751   21747   21793   21795
   21751   21747   21793   21794   21752   21751   21754   21755
   21752   21751   21754   21785   21793   21747   21751   21752
   21753   21751   21754   21755   21753   21751   21754   21785
   21793   21747   21751   21753   21754   21755   21757   21760
   21754   21755   21757   21759   21754   21755   21757   21758
   21780   21783   21785   21754   21784   21783   21785   21754
   21760   21783   21785   21754   21754   21785   21786   21789
   21754   21785   21786   21788   21754   21785   21786   21787
   21754   21785   21790   21792   21754   21785   21790   21791
   21754   21785   21790   21793   21793   21747   21751   21754
   21755   21757   21760   21762   21755   21757   21760   21783
   21755   21757   21760   21761   21755   21754   21785   21783
   21755   21754   21785   21786   21755   21754   21785   21790
   21756   21755   21757   21760   21756   21755   21757   21759
   21756   21755   21757   21758   21785   21754   21755   21756
   21757   21760   21762   21764   21757   21760   21762   21772
   21757   21760   21762   21763   21757   21760   21783   21780
   21757   21760   21783   21785   21757   21760   21783   21784
   21785   21754   21755   21757   21758   21757   21760   21762
   21758   21757   21760   21783   21758   21757   21760   21761
   21759   21757   21760   21762   21759   21757   21760   21783
   21759   21757   21760   21761   21760   21762   21764   21767
   21760   21762   21764   21766   21760   21762   21764   21765
   21760   21762   21772   21770   21760   21762   21772   21773
   21760   21762   21772   21777   21782   21780   21783   21760
   21781   21780   21783   21760   21777   21780   21783   21760
   21760   21783   21785   21786   21760   21783   21785   21790
   21761   21760   21762   21764   21761   21760   21762   21772
   21761   21760   21762   21763   21761   21760   21783   21780
   21761   21760   21783   21785   21761   21760   21783   21784
   21762   21764   21767   21770   21762   21764   21767   21769
   21762   21764   21767   21768   21796   21770   21772   21762
   21771   21770   21772   21762   21767   21770   21772   21762
   21762   21772   21773   21776   21762   21772   21773   21775
   21762   21772   21773   21774   21762   21772   21777   21780
   21762   21772   21777   21779   21762   21772   21777   21778
   21762   21760   21783   21780   21762   21760   21783   21785
   21762   21760   21783   21784   21763   21762   21764   21767
   21763   21762   21764   21766   21763   21762   21764   21765
   21763   21762   21772   21770   21763   21762   21772   21773
   21763   21762   21772   21777   21783   21760   21762   21763
   21764   21767   21770   21796   21764   21767   21770   21772
   21764   21767   21770   21771   21764   21762   21772   21770
   21764   21762   21772   21773   21764   21762   21772   21777
   21783   21760   21762   21764   21765   21764   21767   21770
   21765   21764   21767   21769   21765   21764   21767   21768
   21772   21762   21764   21765   21766   21764   21767   21770
   21766   21764   21767   21769   21766   21764   21767   21768
   21772   21762   21764   21766   21767   21770   21796   21802
   21767   21770   21796   21798   21767   21770   21796   21797
   21767   21770   21772   21773   21767   21770   21772   21777
   21772   21762   21764   21767   21768   21767   21770   21796
   21768   21767   21770   21772   21768   21767   21770   21771
   21769   21767   21770   21796   21769   21767   21770   21772
   21769   21767   21770   21771   21770   21796   21802   21805
   21770   21796   21802   21804   21770   21796   21802   21803
   21770   21796   21798   21801   21770   21796   21798   21800
   21770   21796   21798   21799   21770   21772   21773   21776
   21770   21772   21773   21775   21770   21772   21773   21774
   21770   21772   21777   21780   21770   21772   21777   21779
   21770   21772   21777   21778   21771   21770   21796   21802
   21771   21770   21796   21798   21771   21770   21796   21797
   21771   21770   21772   21773   21771   21770   21772   21777
   21772   21770   21796   21802   21772   21770   21796   21798
   21772   21770   21796   21797   21772   21777   21780   21783
   21772   21777   21780   21782   21772   21777   21780   21781
   21783   21760   21762   21772   21796   21770   21772   21773
   21773   21772   21777   21780   21773   21772   21777   21779
   21773   21772   21777   21778   21777   21772   21773   21774
   21777   21772   21773   21775   21777   21772   21773   21776
   21777   21780   21783   21785   21777   21780   21783   21784
   21796   21770   21772   21777   21778   21777   21780   21783
   21778   21777   21780   21782   21778   21777   21780   21781
   21779   21777   21780   21783   21779   21777   21780   21782
   21779   21777   21780   21781   21780   21783   21785   21786
   21780   21783   21785   21790   21781   21780   21783   21785
   21781   21780   21783   21784   21782   21780   21783   21785
   21782   21780   21783   21784   21783   21785   21786   21789
   21783   21785   21786   21788   21783   21785   21786   21787
   21783   21785   21790   21792   21783   21785   21790   21791
   21783   21785   21790   21793   21784   21783   21785   21786
   21784   21783   21785   21790   21785   21790   21793   21795
   21785   21790   21793   21794   21786   21785   21790   21792
   21786   21785   21790   21791   21786   21785   21790   21793
   21790   21785   21786   21787   21790   21785   21786   21788
   21790   21785   21786   21789   21791   21790   21793   21795
   21791   21790   21793   21794   21792   21790   21793   21795
   21792   21790   21793   21794   21796   21802   21805   21808
   21796   21802   21805   21807   21796   21802   21805   21806
   21797   21796   21802   21805   21797   21796   21802   21804
   21797   21796   21802   21803   21797   21796   21798   21801
   21797   21796   21798   21800   21797   21796   21798   21799
   21798   21796   21802   21805   21798   21796   21802   21804
   21798   21796   21802   21803   21802   21796   21798   21799
   21802   21796   21798   21800   21802   21796   21798   21801
   21802   21805   21808   21811   21802   21805   21808   21810
   21802   21805   21808   21809   21803   21802   21805   21808
   21803   21802   21805   21807   21803   21802   21805   21806
   21804   21802   21805   21808   21804   21802   21805   21807
   21804   21802   21805   21806   21805   21808   21811   21817
   21805   21808   21811   21813   21805   21808   21811   21812
   21806   21805   21808   21811   21806   21805   21808   21810
   21806   21805   21808   21809   21807   21805   21808   21811
   21807   21805   21808   21810   21807   21805   21808   21809
   21808   21811   21817   21820   21808   21811   21817   21819
   21808   21811   21817   21818   21808   21811   21813   21816
   21808   21811   21813   21815   21808   21811   21813   21814
   21809   21808   21811   21817   21809   21808   21811   21813
   21809   21808   21811   21812   21810   21808   21811   21817
   21810   21808   21811   21813   21810   21808   21811   21812
   21812   21811   21817   21820   21812   21811   21817   21819
   21812   21811   21817   21818   21812   21811   21813   21816
   21812   21811   21813   21815   21812   21811   21813   21814
   21813   21811   21817   21820   21813   21811   21817   21819
   21813   21811   21817   21818   21817   21811   21813   21814
   21817   21811   21813   21815   21817   21811   21813   21816
   21821   21825   21828   21829   21821   21825   21828   21859
   21859   21864   21867   21821   21866   21864   21867   21821
   21865   21864   21867   21821   21822   21821   21825   21828
   21822   21821   21825   21827   21822   21821   21825   21826
   21822   21821   21867   21864   21822   21821   21867   21869
   21822   21821   21867   21868   21822   21821   21823   21824
   21823   21821   21825   21828   21823   21821   21825   21827
   21823   21821   21825   21826   21823   21821   21867   21864
   21823   21821   21867   21869   21823   21821   21867   21868
   21825   21821   21823   21824   21867   21821   21823   21824
   21825   21828   21829   21831   21825   21828   21829   21830
   21825   21828   21859   21857   21825   21828   21859   21860
   21825   21828   21859   21864   21825   21821   21867   21864
   21825   21821   21867   21869   21825   21821   21867   21868
   21826   21825   21828   21829   21826   21825   21828   21859
   21867   21821   21825   21826   21827   21825   21828   21829
   21827   21825   21828   21859   21867   21821   21825   21827
   21828   21829   21831   21834   21828   21829   21831   21833
   21828   21829   21831   21832   21854   21857   21859   21828
   21858   21857   21859   21828   21834   21857   21859   21828
   21828   21859   21860   21863   21828   21859   21860   21862
   21828   21859   21860   21861   21828   21859   21864   21866
   21828   21859   21864   21865   21828   21859   21864   21867
   21867   21821   21825   21828   21829   21831   21834   21836
   21829   21831   21834   21857   21829   21831   21834   21835
   21829   21828   21859   21857   21829   21828   21859   21860
   21829   21828   21859   21864   21830   21829   21831   21834
   21830   21829   21831   21833   21830   21829   21831   21832
   21859   21828   21829   21830   21831   21834   21836   21838
   21831   21834   21836   21846   21831   21834   21836   21837
   21831   21834   21857   21854   21831   21834   21857   21859
   21831   21834   21857   21858   21859   21828   21829   21831
   21832   21831   21834   21836   21832   21831   21834   21857
   21832   21831   21834   21835   21833   21831   21834   21836
   21833   21831   21834   21857   21833   21831   21834   21835
   21834   21836   21838   21841   21834   21836   21838   21840
   21834   21836   21838   21839   21834   21836   21846   21844
   21834   21836   21846   21847   21834   21836   21846   21851
   21856   21854   21857   21834   21855   21854   21857   21834
   21851   21854   21857   21834   21834   21857   21859   21860
   21834   21857   21859   21864   21835   21834   21836   21838
   21835   21834   21836   21846   21835   21834   21836   21837
   21835   21834   21857   21854   21835   21834   21857   21859
   21835   21834   21857   21858   21836   21838   21841   21844
   21836   21838   21841   21843   21836   21838   21841   21842
   21870   21844   21846   21836   21845   21844   21846   21836
   21841   21844   21846   21836   21836   21846   21847   21850
   21836   21846   21847   21849   21836   21846   21847   21848
   21836   21846   21851   21854   21836   21846   21851   21853
   21836   21846   21851   21852   21836   21834   21857   21854
   21836   21834   21857   21859   21836   21834   21857   21858
   21837   21836   21838   21841   21837   21836   21838   21840
   21837   21836   21838   21839   21837   21836   21846   21844
   21837   21836   21846   21847   21837   21836   21846   21851
   21857   21834   21836   21837   21838   21841   21844   21870
   21838   21841   21844   21846   21838   21841   21844   21845
   21838   21836   21846   21844   21838   21836   21846   21847
   21838   21836   21846   21851   21857   21834   21836   21838
   21839   21838   21841   21844   21839   21838   21841   21843
   21839   21838   21841   21842   21846   21836   21838   21839
   21840   21838   21841   21844   21840   21838   21841   21843
   21840   21838   21841   21842   21846   21836   21838   21840
   21841   21844   21870   21876   21841   21844   21870   21872
   21841   21844   21870   21871   21841   21844   21846   21847
   21841   21844   21846   21851   21846   21836   21838   21841
   21842   21841   21844   21870   21842   21841   21844   21846
   21842   21841   21844   21845   21843   21841   21844   21870
   21843   21841   21844   21846   21843   21841   21844   21845
   21844   21870   21876   21879   21844   21870   21876   21878
   21844   21870   21876   21877   21844   21870   21872   21875
   21844   21870   21872   21874   21844   21870   21872   21873
   21844   21846   21847   21850   21844   21846   21847   21849
   21844   21846   21847   21848   21844   21846   21851   21854
   21844   21846   21851   21853   21844   21846   21851   21852
   21845   21844   21870   21876   21845   21844   21870   21872
   21845   21844   21870   21871   21845   21844   21846   21847
   21845   21844   21846   21851   21846   21844   21870   21876
   21846   21844   21870   21872   21846   21844   21870   21871
   21846   21851   21854   21857   21846   21851   21854   21856
   21846   21851   21854   21855   21857   21834   21836   21846
   21870   21844   21846   21847   21847   21846   21851   21854
   21847   21846   21851   21853   21847   21846   21851   21852
   21851   21846   21847   21848   21851   21846   21847   21849
   21851   21846   21847   21850   21851   21854   21857   21859
   21851   21854   21857   21858   21870   21844   21846   21851
   21852   21851   21854   21857   21852   21851   21854   21856
   21852   21851   21854   21855   21853   21851   21854   21857
   21853   21851   21854   21856   21853   21851   21854   21855
   21854   21857   21859   21860   21854   21857   21859   21864
   21855   21854   21857   21859   21855   21854   21857   21858
   21856   21854   21857   21859   21856   21854   21857   21858
   21857   21859   21860   21863   21857   21859   21860   21862
   21857   21859   21860   21861   21857   21859   21864   21866
   21857   21859   21864   21865   21857   21859   21864   21867
   21858   21857   21859   21860   21858   21857   21859   21864
   21859   21864   21867   21869   21859   21864   21867   21868
   21860   21859   21864   21866   21860   21859   21864   21865
   21860   21859   21864   21867   21864   21859   21860   21861
   21864   21859   21860   21862   21864   21859   21860   21863
   21865   21864   21867   21869   21865   21864   21867   21868
   21866   21864   21867   21869   21866   21864   21867   21868
   21870   21876   21879   21882   21870   21876   21879   21881
   21870   21876   21879   21880   21871   21870   21876   21879
   21871   21870   21876   21878   21871   21870   21876   21877
   21871   21870   21872   21875   21871   21870   21872   21874
   21871   21870   21872   21873   21872   21870   21876   21879
   21872   21870   21876   21878   21872   21870   21876   21877
   21876   21870   21872   21873   21876   21870   21872   21874
   21876   21870   21872   21875   21876   21879   21882   21885
   21876   21879   21882   21884   21876   21879   21882   21883
   21877   21876   21879   21882   21877   21876   21879   21881
   21877   21876   21879   21880   21878   21876   21879   21882
   21878   21876   21879   21881   21878   21876   21879   21880
   21879   21882   21885   21891   21879   21882   21885   21887
   21879   21882   21885   21886   21880   21879   21882   21885
   21880   21879   21882   21884   21880   21879   21882   21883
   21881   21879   21882   21885   21881   21879   21882   21884
   21881   21879   21882   21883   21882   21885   21891   21894
   21882   21885   21891   21893   21882   21885   21891   21892
   21882   21885   21887   21890   21882   21885   21887   21889
   21882   21885   21887   21888   21883   21882   21885   21891
   21883   21882   21885   21887   21883   21882   21885   21886
   21884   21882   21885   21891   21884   21882   21885   21887
   21884   21882   21885   21886   21886   21885   21891   21894
   21886   21885   21891   21893   21886   21885   21891   21892
   21886   21885   21887   21890   21886   21885   21887   21889
   21886   21885   21887   21888   21887   21885   21891   21894
   21887   21885   21891   21893   21887   21885   21891   21892
   21891   21885   21887   21888   21891   21885   21887   21889
   21891   21885   21887   21890   21895   21899   21902   21903
   21895   21899   21902   21933   21933   21938   21941   21895
   21940   21938   21941   21895   21939   21938   21941   21895
   21896   21895   21899   21902   21896   21895   21899   21901
   21896   21895   21899   21900   21896   21895   21941   21938
   21896   21895   21941   21943   21896   21895   21941   21942
   21896   21895   21897   21898   21897   21895   21899   21902
   21897   21895   21899   21901   21897   21895   21899   21900
   21897   21895   21941   21938   21897   21895   21941   21943
   21897   21895   21941   21942   21899   21895   21897   21898
   21941   21895   21897   21898   21899   21902   21903   21905
   21899   21902   21903   21904   21899   21902   21933   21931
   21899   21902   21933   21934   21899   21902   21933   21938
   21899   21895   21941   21938   21899   21895   21941   21943
   21899   21895   21941   21942   21900   21899   21902   21903
   21900   21899   21902   21933   21941   21895   21899   21900
   21901   21899   21902   21903   21901   21899   21902   21933
   21941   21895   21899   21901   21902   21903   21905   21908
   21902   21903   21905   21907   21902   21903   21905   21906
   21928   21931   21933   21902   21932   21931   21933   21902
   21908   21931   21933   21902   21902   21933   21934   21937
   21902   21933   21934   21936   21902   21933   21934   21935
   21902   21933   21938   21940   21902   21933   21938   21939
   21902   21933   21938   21941   21941   21895   21899   21902
   21903   21905   21908   21910   21903   21905   21908   21931
   21903   21905   21908   21909   21903   21902   21933   21931
   21903   21902   21933   21934   21903   21902   21933   21938
   21904   21903   21905   21908   21904   21903   21905   21907
   21904   21903   21905   21906   21933   21902   21903   21904
   21905   21908   21910   21912   21905   21908   21910   21920
   21905   21908   21910   21911   21905   21908   21931   21928
   21905   21908   21931   21933   21905   21908   21931   21932
   21933   21902   21903   21905   21906   21905   21908   21910
   21906   21905   21908   21931   21906   21905   21908   21909
   21907   21905   21908   21910   21907   21905   21908   21931
   21907   21905   21908   21909   21908   21910   21912   21915
   21908   21910   21912   21914   21908   21910   21912   21913
   21908   21910   21920   21918   21908   21910   21920   21921
   21908   21910   21920   21925   21930   21928   21931   21908
   21929   21928   21931   21908   21925   21928   21931   21908
   21908   21931   21933   21934   21908   21931   21933   21938
   21909   21908   21910   21912   21909   21908   21910   21920
   21909   21908   21910   21911   21909   21908   21931   21928
   21909   21908   21931   21933   21909   21908   21931   21932
   21910   21912   21915   21918   21910   21912   21915   21917
   21910   21912   21915   21916   21944   21918   21920   21910
   21919   21918   21920   21910   21915   21918   21920   21910
   21910   21920   21921   21924   21910   21920   21921   21923
   21910   21920   21921   21922   21910   21920   21925   21928
   21910   21920   21925   21927   21910   21920   21925   21926
   21910   21908   21931   21928   21910   21908   21931   21933
   21910   21908   21931   21932   21911   21910   21912   21915
   21911   21910   21912   21914   21911   21910   21912   21913
   21911   21910   21920   21918   21911   21910   21920   21921
   21911   21910   21920   21925   21931   21908   21910   21911
   21912   21915   21918   21944   21912   21915   21918   21920
   21912   21915   21918   21919   21912   21910   21920   21918
   21912   21910   21920   21921   21912   21910   21920   21925
   21931   21908   21910   21912   21913   21912   21915   21918
   21913   21912   21915   21917   21913   21912   21915   21916
   21920   21910   21912   21913   21914   21912   21915   21918
   21914   21912   21915   21917   21914   21912   21915   21916
   21920   21910   21912   21914   21915   21918   21944   21950
   21915   21918   21944   21946   21915   21918   21944   21945
   21915   21918   21920   21921   21915   21918   21920   21925
   21920   21910   21912   21915   21916   21915   21918   21944
   21916   21915   21918   21920   21916   21915   21918   21919
   21917   21915   21918   21944   21917   21915   21918   21920
   21917   21915   21918   21919   21918   21944   21950   21953
   21918   21944   21950   21952   21918   21944   21950   21951
   21918   21944   21946   21949   21918   21944   21946   21948
   21918   21944   21946   21947   21918   21920   21921   21924
   21918   21920   21921   21923   21918   21920   21921   21922
   21918   21920   21925   21928   21918   21920   21925   21927
   21918   21920   21925   21926   21919   21918   21944   21950
   21919   21918   21944   21946   21919   21918   21944   21945
   21919   21918   21920   21921   21919   21918   21920   21925
   21920   21918   21944   21950   21920   21918   21944   21946
   21920   21918   21944   21945   21920   21925   21928   21931
   21920   21925   21928   21930   21920   21925   21928   21929
   21931   21908   21910   21920   21944   21918   21920   21921
   21921   21920   21925   21928   21921   21920   21925   21927
   21921   21920   21925   21926   21925   21920   21921   21922
   21925   21920   21921   21923   21925   21920   21921   21924
   21925   21928   21931   21933   21925   21928   21931   21932
   21944   21918   21920   21925   21926   21925   21928   21931
   21926   21925   21928   21930   21926   21925   21928   21929
   21927   21925   21928   21931   21927   21925   21928   21930
   21927   21925   21928   21929   21928   21931   21933   21934
   21928   21931   21933   21938   21929   21928   21931   21933
   21929   21928   21931   21932   21930   21928   21931   21933
   21930   21928   21931   21932   21931   21933   21934   21937
   21931   21933   21934   21936   21931   21933   21934   21935
   21931   21933   21938   21940   21931   21933   21938   21939
   21931   21933   21938   21941   21932   21931   21933   21934
   21932   21931   21933   21938   21933   21938   21941   21943
   21933   21938   21941   21942   21934   21933   21938   21940
   21934   21933   21938   21939   21934   21933   21938   21941
   21938   21933   21934   21935   21938   21933   21934   21936
   21938   21933   21934   21937   21939   21938   21941   21943
   21939   21938   21941   21942   21940   21938   21941   21943
   21940   21938   21941   21942   21944   21950   21953   21956
   21944   21950   21953   21955   21944   21950   21953   21954
   21945   21944   21950   21953   21945   21944   21950   21952
   21945   21944   21950   21951   21945   21944   21946   21949
   21945   21944   21946   21948   21945   21944   21946   21947
   21946   21944   21950   21953   21946   21944   21950   21952
   21946   21944   21950   21951   21950   21944   21946   21947
   21950   21944   21946   21948   21950   21944   21946   21949
   21950   21953   21956   21959   21950   21953   21956   21958
   21950   21953   21956   21957   21951   21950   21953   21956
   21951   21950   21953   21955   21951   21950   21953   21954
   21952   21950   21953   21956   21952   21950   21953   21955
   21952   21950   21953   21954   21953   21956   21959   21965
   21953   21956   21959   21961   21953   21956   21959   21960
   21954   21953   21956   21959   21954   21953   21956   21958
   21954   21953   21956   21957   21955   21953   21956   21959
   21955   21953   21956   21958   21955   21953   21956   21957
   21956   21959   21965   21968   21956   21959   21965   21967
   21956   21959   21965   21966   21956   21959   21961   21964
   21956   21959   21961   21963   21956   21959   21961   21962
   21957   21956   21959   21965   21957   21956   21959   21961
   21957   21956   21959   21960   21958   21956   21959   21965
   21958   21956   21959   21961   21958   21956   21959   21960
   21960   21959   21965   21968   21960   21959   21965   21967
   21960   21959   21965   21966   21960   21959   21961   21964
   21960   21959   21961   21963   21960   21959   21961   21962
   21961   21959   21965   21968   21961   21959   21965   21967
   21961   21959   21965   21966   21965   21959   21961   21962
   21965   21959   21961   21963   21965   21959   21961   21964
   21969   21973   21976   21977   21969   21973   21976   22007
   22007   22012   22015   21969   22014   22012   22015   21969
   22013   22012   22015   21969   21970   21969   21973   21976
   21970   21969   21973   21975   21970   21969   21973   21974
   21970   21969   22015   22012   21970   21969   22015   22017
   21970   21969   22015   22016   21970   21969   21971   21972
   21971   21969   21973   21976   21971   21969   21973   21975
   21971   21969   21973   21974   21971   21969   22015   22012
   21971   21969   22015   22017   21971   21969   22015   22016
   21973   21969   21971   21972   22015   21969   21971   21972
   21973   21976   21977   21979   21973   21976   21977   21978
   21973   21976   22007   22005   21973   21976   22007   22008
   21973   21976   22007   22012   21973   21969   22015   22012
   21973   21969   22015   22017   21973   21969   22015   22016
   21974   21973   21976   21977   21974   21973   21976   22007
   22015   21969   21973   21974   21975   21973   21976   21977
   21975   21973   21976   22007   22015   21969   21973   21975
   21976   21977   21979   21982   21976   21977   21979   21981
   21976   21977   21979   21980   22002   22005   22007   21976
   22006   22005   22007   21976   21982   22005   22007   21976
   21976   22007   22008   22011   21976   22007   22008   22010
   21976   22007   22008   22009   21976   22007   22012   22014
   21976   22007   22012   22013   21976   22007   22012   22015
   22015   21969   21973   21976   21977   21979   21982   21984
   21977   21979   21982   22005   21977   21979   21982   21983
   21977   21976   22007   22005   21977   21976   22007   22008
   21977   21976   22007   22012   21978   21977   21979   21982
   21978   21977   21979   21981   21978   21977   21979   21980
   22007   21976   21977   21978   21979   21982   21984   21986
   21979   21982   21984   21994   21979   21982   21984   21985
   21979   21982   22005   22002   21979   21982   22005   22007
   21979   21982   22005   22006   22007   21976   21977   21979
   21980   21979   21982   21984   21980   21979   21982   22005
   21980   21979   21982   21983   21981   21979   21982   21984
   21981   21979   21982   22005   21981   21979   21982   21983
   21982   21984   21986   21989   21982   21984   21986   21988
   21982   21984   21986   21987   21982   21984   21994   21992
   21982   21984   21994   21995   21982   21984   21994   21999
   22004   22002   22005   21982   22003   22002   22005   21982
   21999   22002   22005   21982   21982   22005   22007   22008
   21982   22005   22007   22012   21983   21982   21984   21986
   21983   21982   21984   21994   21983   21982   21984   21985
   21983   21982   22005   22002   21983   21982   22005   22007
   21983   21982   22005   22006   21984   21986   21989   21992
   21984   21986   21989   21991   21984   21986   21989   21990
   22018   21992   21994   21984   21993   21992   21994   21984
   21989   21992   21994   21984   21984   21994   21995   21998
   21984   21994   21995   21997   21984   21994   21995   21996
   21984   21994   21999   22002   21984   21994   21999   22001
   21984   21994   21999   22000   21984   21982   22005   22002
   21984   21982   22005   22007   21984   21982   22005   22006
   21985   21984   21986   21989   21985   21984   21986   21988
   21985   21984   21986   21987   21985   21984   21994   21992
   21985   21984   21994   21995   21985   21984   21994   21999
   22005   21982   21984   21985   21986   21989   21992   22018
   21986   21989   21992   21994   21986   21989   21992   21993
   21986   21984   21994   21992   21986   21984   21994   21995
   21986   21984   21994   21999   22005   21982   21984   21986
   21987   21986   21989   21992   21987   21986   21989   21991
   21987   21986   21989   21990   21994   21984   21986   21987
   21988   21986   21989   21992   21988   21986   21989   21991
   21988   21986   21989   21990   21994   21984   21986   21988
   21989   21992   22018   22024   21989   21992   22018   22020
   21989   21992   22018   22019   21989   21992   21994   21995
   21989   21992   21994   21999   21994   21984   21986   21989
   21990   21989   21992   22018   21990   21989   21992   21994
   21990   21989   21992   21993   21991   21989   21992   22018
   21991   21989   21992   21994   21991   21989   21992   21993
   21992   22018   22024   22027   21992   22018   22024   22026
   21992   22018   22024   22025   21992   22018   22020   22023
   21992   22018   22020   22022   21992   22018   22020   22021
   21992   21994   21995   21998   21992   21994   21995   21997
   21992   21994   21995   21996   21992   21994   21999   22002
   21992   21994   21999   22001   21992   21994   21999   22000
   21993   21992   22018   22024   21993   21992   22018   22020
   21993   21992   22018   22019   21993   21992   21994   21995
   21993   21992   21994   21999   21994   21992   22018   22024
   21994   21992   22018   22020   21994   21992   22018   22019
   21994   21999   22002   22005   21994   21999   22002   22004
   21994   21999   22002   22003   22005   21982   21984   21994
   22018   21992   21994   21995   21995   21994   21999   22002
   21995   21994   21999   22001   21995   21994   21999   22000
   21999   21994   21995   21996   21999   21994   21995   21997
   21999   21994   21995   21998   21999   22002   22005   22007
   21999   22002   22005   22006   22018   21992   21994   21999
   22000   21999   22002   22005   22000   21999   22002   22004
   22000   21999   22002   22003   22001   21999   22002   22005
   22001   21999   22002   22004   22001   21999   22002   22003
   22002   22005   22007   22008   22002   22005   22007   22012
   22003   22002   22005   22007   22003   22002   22005   22006
   22004   22002   22005   22007   22004   22002   22005   22006
   22005   22007   22008   22011   22005   22007   22008   22010
   22005   22007   22008   22009   22005   22007   22012   22014
   22005   22007   22012   22013   22005   22007   22012   22015
   22006   22005   22007   22008   22006   22005   22007   22012
   22007   22012   22015   22017   22007   22012   22015   22016
   22008   22007   22012   22014   22008   22007   22012   22013
   22008   22007   22012   22015   22012   22007   22008   22009
   22012   22007   22008   22010   22012   22007   22008   22011
   22013   22012   22015   22017   22013   22012   22015   22016
   22014   22012   22015   22017   22014   22012   22015   22016
   22018   22024   22027   22030   22018   22024   22027   22029
   22018   22024   22027   22028   22019   22018   22024   22027
   22019   22018   22024   22026   22019   22018   22024   22025
   22019   22018   22020   22023   22019   22018   22020   22022
   22019   22018   22020   22021   22020   22018   22024   22027
   22020   22018   22024   22026   22020   22018   22024   22025
   22024   22018   22020   22021   22024   22018   22020   22022
   22024   22018   22020   22023   22024   22027   22030   22033
   22024   22027   22030   22032   22024   22027   22030   22031
   22025   22024   22027   22030   22025   22024   22027   22029
   22025   22024   22027   22028   22026   22024   22027   22030
   22026   22024   22027   22029   22026   22024   22027   22028
   22027   22030   22033   22039   22027   22030   22033   22035
   22027   22030   22033   22034   22028   22027   22030   22033
   22028   22027   22030   22032   22028   22027   22030   22031
   22029   22027   22030   22033   22029   22027   22030   22032
   22029   22027   22030   22031   22030   22033   22039   22042
   22030   22033   22039   22041   22030   22033   22039   22040
   22030   22033   22035   22038   22030   22033   22035   22037
   22030   22033   22035   22036   22031   22030   22033   22039
   22031   22030   22033   22035   22031   22030   22033   22034
   22032   22030   22033   22039   22032   22030   22033   22035
   22032   22030   22033   22034   22034   22033   22039   22042
   22034   22033   22039   22041   22034   22033   22039   22040
   22034   22033   22035   22038   22034   22033   22035   22037
   22034   22033   22035   22036   22035   22033   22039   22042
   22035   22033   22039   22041   22035   22033   22039   22040
   22039   22033   22035   22036   22039   22033   22035   22037
   22039   22033   22035   22038   22043   22047   22050   22051
   22043   22047   22050   22081   22081   22086   22089   22043
   22088   22086   22089   22043   22087   22086   22089   22043
   22044   22043   22047   22050   22044   22043   22047   22049
   22044   22043   22047   22048   22044   22043   22089   22086
   22044   22043   22089   22091   22044   22043   22089   22090
   22044   22043   22045   22046   22045   22043   22047   22050
   22045   22043   22047   22049   22045   22043   22047   22048
   22045   22043   22089   22086   22045   22043   22089   22091
   22045   22043   22089   22090   22047   22043   22045   22046
   22089   22043   22045   22046   22047   22050   22051   22053
   22047   22050   22051   22052   22047   22050   22081   22079
   22047   22050   22081   22082   22047   22050   22081   22086
   22047   22043   22089   22086   22047   22043   22089   22091
   22047   22043   22089   22090   22048   22047   22050   22051
   22048   22047   22050   22081   22089   22043   22047   22048
   22049   22047   22050   22051   22049   22047   22050   22081
   22089   22043   22047   22049   22050   22051   22053   22056
   22050   22051   22053   22055   22050   22051   22053   22054
   22076   22079   22081   22050   22080   22079   22081   22050
   22056   22079   22081   22050   22050   22081   22082   22085
   22050   22081   22082   22084   22050   22081   22082   22083
   22050   22081   22086   22088   22050   22081   22086   22087
   22050   22081   22086   22089   22089   22043   22047   22050
   22051   22053   22056   22058   22051   22053   22056   22079
   22051   22053   22056   22057   22051   22050   22081   22079
   22051   22050   22081   22082   22051   22050   22081   22086
   22052   22051   22053   22056   22052   22051   22053   22055
   22052   22051   22053   22054   22081   22050   22051   22052
   22053   22056   22058   22060   22053   22056   22058   22068
   22053   22056   22058   22059   22053   22056   22079   22076
   22053   22056   22079   22081   22053   22056   22079   22080
   22081   22050   22051   22053   22054   22053   22056   22058
   22054   22053   22056   22079   22054   22053   22056   22057
   22055   22053   22056   22058   22055   22053   22056   22079
   22055   22053   22056   22057   22056   22058   22060   22063
   22056   22058   22060   22062   22056   22058   22060   22061
   22056   22058   22068   22066   22056   22058   22068   22069
   22056   22058   22068   22073   22078   22076   22079   22056
   22077   22076   22079   22056   22073   22076   22079   22056
   22056   22079   22081   22082   22056   22079   22081   22086
   22057   22056   22058   22060   22057   22056   22058   22068
   22057   22056   22058   22059   22057   22056   22079   22076
   22057   22056   22079   22081   22057   22056   22079   22080
   22058   22060   22063   22066   22058   22060   22063   22065
   22058   22060   22063   22064   22092   22066   22068   22058
   22067   22066   22068   22058   22063   22066   22068   22058
   22058   22068   22069   22072   22058   22068   22069   22071
   22058   22068   22069   22070   22058   22068   22073   22076
   22058   22068   22073   22075   22058   22068   22073   22074
   22058   22056   22079   22076   22058   22056   22079   22081
   22058   22056   22079   22080   22059   22058   22060   22063
   22059   22058   22060   22062   22059   22058   22060   22061
   22059   22058   22068   22066   22059   22058   22068   22069
   22059   22058   22068   22073   22079   22056   22058   22059
   22060   22063   22066   22092   22060   22063   22066   22068
   22060   22063   22066   22067   22060   22058   22068   22066
   22060   22058   22068   22069   22060   22058   22068   22073
   22079   22056   22058   22060   22061   22060   22063   22066
   22061   22060   22063   22065   22061   22060   22063   22064
   22068   22058   22060   22061   22062   22060   22063   22066
   22062   22060   22063   22065   22062   22060   22063   22064
   22068   22058   22060   22062   22063   22066   22092   22098
   22063   22066   22092   22094   22063   22066   22092   22093
   22063   22066   22068   22069   22063   22066   22068   22073
   22068   22058   22060   22063   22064   22063   22066   22092
   22064   22063   22066   22068   22064   22063   22066   22067
   22065   22063   22066   22092   22065   22063   22066   22068
   22065   22063   22066   22067   22066   22092   22098   22101
   22066   22092   22098   22100   22066   22092   22098   22099
   22066   22092   22094   22097   22066   22092   22094   22096
   22066   22092   22094   22095   22066   22068   22069   22072
   22066   22068   22069   22071   22066   22068   22069   22070
   22066   22068   22073   22076   22066   22068   22073   22075
   22066   22068   22073   22074   22067   22066   22092   22098
   22067   22066   22092   22094   22067   22066   22092   22093
   22067   22066   22068   22069   22067   22066   22068   22073
   22068   22066   22092   22098   22068   22066   22092   22094
   22068   22066   22092   22093   22068   22073   22076   22079
   22068   22073   22076   22078   22068   22073   22076   22077
   22079   22056   22058   22068   22092   22066   22068   22069
   22069   22068   22073   22076   22069   22068   22073   22075
   22069   22068   22073   22074   22073   22068   22069   22070
   22073   22068   22069   22071   22073   22068   22069   22072
   22073   22076   22079   22081   22073   22076   22079   22080
   22092   22066   22068   22073   22074   22073   22076   22079
   22074   22073   22076   22078   22074   22073   22076   22077
   22075   22073   22076   22079   22075   22073   22076   22078
   22075   22073   22076   22077   22076   22079   22081   22082
   22076   22079   22081   22086   22077   22076   22079   22081
   22077   22076   22079   22080   22078   22076   22079   22081
   22078   22076   22079   22080   22079   22081   22082   22085
   22079   22081   22082   22084   22079   22081   22082   22083
   22079   22081   22086   22088   22079   22081   22086   22087
   22079   22081   22086   22089   22080   22079   22081   22082
   22080   22079   22081   22086   22081   22086   22089   22091
   22081   22086   22089   22090   22082   22081   22086   22088
   22082   22081   22086   22087   22082   22081   22086   22089
   22086   22081   22082   22083   22086   22081   22082   22084
   22086   22081   22082   22085   22087   22086   22089   22091
   22087   22086   22089   22090   22088   22086   22089   22091
   22088   22086   22089   22090   22092   22098   22101   22104
   22092   22098   22101   22103   22092   22098   22101   22102
   22093   22092   22098   22101   22093   22092   22098   22100
   22093   22092   22098   22099   22093   22092   22094   22097
   22093   22092   22094   22096   22093   22092   22094   22095
   22094   22092   22098   22101   22094   22092   22098   22100
   22094   22092   22098   22099   22098   22092   22094   22095
   22098   22092   22094   22096   22098   22092   22094   22097
   22098   22101   22104   22107   22098   22101   22104   22106
   22098   22101   22104   22105   22099   22098   22101   22104
   22099   22098   22101   22103   22099   22098   22101   22102
   22100   22098   22101   22104   22100   22098   22101   22103
   22100   22098   22101   22102   22101   22104   22107   22113
   22101   22104   22107   22109   22101   22104   22107   22108
   22102   22101   22104   22107   22102   22101   22104   22106
   22102   22101   22104   22105   22103   22101   22104   22107
   22103   22101   22104   22106   22103   22101   22104   22105
   22104   22107   22113   22116   22104   22107   22113   22115
   22104   22107   22113   22114   22104   22107   22109   22112
   22104   22107   22109   22111   22104   22107   22109   22110
   22105   22104   22107   22113   22105   22104   22107   22109
   22105   22104   22107   22108   22106   22104   22107   22113
   22106   22104   22107   22109   22106   22104   22107   22108
   22108   22107   22113   22116   22108   22107   22113   22115
   22108   22107   22113   22114   22108   22107   22109   22112
   22108   22107   22109   22111   22108   22107   22109   22110
   22109   22107   22113   22116   22109   22107   22113   22115
   22109   22107   22113   22114   22113   22107   22109   22110
   22113   22107   22109   22111   22113   22107   22109   22112
   22117   22121   22124   22125   22117   22121   22124   22155
   22155   22160   22163   22117   22162   22160   22163   22117
   22161   22160   22163   22117   22118   22117   22121   22124
   22118   22117   22121   22123   22118   22117   22121   22122
   22118   22117   22163   22160   22118   22117   22163   22165
   22118   22117   22163   22164   22118   22117   22119   22120
   22119   22117   22121   22124   22119   22117   22121   22123
   22119   22117   22121   22122   22119   22117   22163   22160
   22119   22117   22163   22165   22119   22117   22163   22164
   22121   22117   22119   22120   22163   22117   22119   22120
   22121   22124   22125   22127   22121   22124   22125   22126
   22121   22124   22155   22153   22121   22124   22155   22156
   22121   22124   22155   22160   22121   22117   22163   22160
   22121   22117   22163   22165   22121   22117   22163   22164
   22122   22121   22124   22125   22122   22121   22124   22155
   22163   22117   22121   22122   22123   22121   22124   22125
   22123   22121   22124   22155   22163   22117   22121   22123
   22124   22125   22127   22130   22124   22125   22127   22129
   22124   22125   22127   22128   22150   22153   22155   22124
   22154   22153   22155   22124   22130   22153   22155   22124
   22124   22155   22156   22159   22124   22155   22156   22158
   22124   22155   22156   22157   22124   22155   22160   22162
   22124   22155   22160   22161   22124   22155   22160   22163
   22163   22117   22121   22124   22125   22127   22130   22132
   22125   22127   22130   22153   22125   22127   22130   22131
   22125   22124   22155   22153   22125   22124   22155   22156
   22125   22124   22155   22160   22126   22125   22127   22130
   22126   22125   22127   22129   22126   22125   22127   22128
   22155   22124   22125   22126   22127   22130   22132   22134
   22127   22130   22132   22142   22127   22130   22132   22133
   22127   22130   22153   22150   22127   22130   22153   22155
   22127   22130   22153   22154   22155   22124   22125   22127
   22128   22127   22130   22132   22128   22127   22130   22153
   22128   22127   22130   22131   22129   22127   22130   22132
   22129   22127   22130   22153   22129   22127   22130   22131
   22130   22132   22134   22137   22130   22132   22134   22136
   22130   22132   22134   22135   22130   22132   22142   22140
   22130   22132   22142   22143   22130   22132   22142   22147
   22152   22150   22153   22130   22151   22150   22153   22130
   22147   22150   22153   22130   22130   22153   22155   22156
   22130   22153   22155   22160   22131   22130   22132   22134
   22131   22130   22132   22142   22131   22130   22132   22133
   22131   22130   22153   22150   22131   22130   22153   22155
   22131   22130   22153   22154   22132   22134   22137   22140
   22132   22134   22137   22139   22132   22134   22137   22138
   22166   22140   22142   22132   22141   22140   22142   22132
   22137   22140   22142   22132   22132   22142   22143   22146
   22132   22142   22143   22145   22132   22142   22143   22144
   22132   22142   22147   22150   22132   22142   22147   22149
   22132   22142   22147   22148   22132   22130   22153   22150
   22132   22130   22153   22155   22132   22130   22153   22154
   22133   22132   22134   22137   22133   22132   22134   22136
   22133   22132   22134   22135   22133   22132   22142   22140
   22133   22132   22142   22143   22133   22132   22142   22147
   22153   22130   22132   22133   22134   22137   22140   22166
   22134   22137   22140   22142   22134   22137   22140   22141
   22134   22132   22142   22140   22134   22132   22142   22143
   22134   22132   22142   22147   22153   22130   22132   22134
   22135   22134   22137   22140   22135   22134   22137   22139
   22135   22134   22137   22138   22142   22132   22134   22135
   22136   22134   22137   22140   22136   22134   22137   22139
   22136   22134   22137   22138   22142   22132   22134   22136
   22137   22140   22166   22172   22137   22140   22166   22168
   22137   22140   22166   22167   22137   22140   22142   22143
   22137   22140   22142   22147   22142   22132   22134   22137
   22138   22137   22140   22166   22138   22137   22140   22142
   22138   22137   22140   22141   22139   22137   22140   22166
   22139   22137   22140   22142   22139   22137   22140   22141
   22140   22166   22172   22175   22140   22166   22172   22174
   22140   22166   22172   22173   22140   22166   22168   22171
   22140   22166   22168   22170   22140   22166   22168   22169
   22140   22142   22143   22146   22140   22142   22143   22145
   22140   22142   22143   22144   22140   22142   22147   22150
   22140   22142   22147   22149   22140   22142   22147   22148
   22141   22140   22166   22172   22141   22140   22166   22168
   22141   22140   22166   22167   22141   22140   22142   22143
   22141   22140   22142   22147   22142   22140   22166   22172
   22142   22140   22166   22168   22142   22140   22166   22167
   22142   22147   22150   22153   22142   22147   22150   22152
   22142   22147   22150   22151   22153   22130   22132   22142
   22166   22140   22142   22143   22143   22142   22147   22150
   22143   22142   22147   22149   22143   22142   22147   22148
   22147   22142   22143   22144   22147   22142   22143   22145
   22147   22142   22143   22146   22147   22150   22153   22155
   22147   22150   22153   22154   22166   22140   22142   22147
   22148   22147   22150   22153   22148   22147   22150   22152
   22148   22147   22150   22151   22149   22147   22150   22153
   22149   22147   22150   22152   22149   22147   22150   22151
   22150   22153   22155   22156   22150   22153   22155   22160
   22151   22150   22153   22155   22151   22150   22153   22154
   22152   22150   22153   22155   22152   22150   22153   22154
   22153   22155   22156   22159   22153   22155   22156   22158
   22153   22155   22156   22157   22153   22155   22160   22162
   22153   22155   22160   22161   22153   22155   22160   22163
   22154   22153   22155   22156   22154   22153   22155   22160
   22155   22160   22163   22165   22155   22160   22163   22164
   22156   22155   22160   22162   22156   22155   22160   22161
   22156   22155   22160   22163   22160   22155   22156   22157
   22160   22155   22156   22158   22160   22155   22156   22159
   22161   22160   22163   22165   22161   22160   22163   22164
   22162   22160   22163   22165   22162   22160   22163   22164
   22166   22172   22175   22178   22166   22172   22175   22177
   22166   22172   22175   22176   22167   22166   22172   22175
   22167   22166   22172   22174   22167   22166   22172   22173
   22167   22166   22168   22171   22167   22166   22168   22170
   22167   22166   22168   22169   22168   22166   22172   22175
   22168   22166   22172   22174   22168   22166   22172   22173
   22172   22166   22168   22169   22172   22166   22168   22170
   22172   22166   22168   22171   22172   22175   22178   22181
   22172   22175   22178   22180   22172   22175   22178   22179
   22173   22172   22175   22178   22173   22172   22175   22177
   22173   22172   22175   22176   22174   22172   22175   22178
   22174   22172   22175   22177   22174   22172   22175   22176
   22175   22178   22181   22187   22175   22178   22181   22183
   22175   22178   22181   22182   22176   22175   22178   22181
   22176   22175   22178   22180   22176   22175   22178   22179
   22177   22175   22178   22181   22177   22175   22178   22180
   22177   22175   22178   22179   22178   22181   22187   22190
   22178   22181   22187   22189   22178   22181   22187   22188
   22178   22181   22183   22186   22178   22181   22183   22185
   22178   22181   22183   22184   22179   22178   22181   22187
   22179   22178   22181   22183   22179   22178   22181   22182
   22180   22178   22181   22187   22180   22178   22181   22183
   22180   22178   22181   22182   22182   22181   22187   22190
   22182   22181   22187   22189   22182   22181   22187   22188
   22182   22181   22183   22186   22182   22181   22183   22185
   22182   22181   22183   22184   22183   22181   22187   22190
   22183   22181   22187   22189   22183   22181   22187   22188
   22187   22181   22183   22184   22187   22181   22183   22185
   22187   22181   22183   22186   22191   22195   22198   22199
   22191   22195   22198   22229   22229   22234   22237   22191
   22236   22234   22237   22191   22235   22234   22237   22191
   22192   22191   22195   22198   22192   22191   22195   22197
   22192   22191   22195   22196   22192   22191   22237   22234
   22192   22191   22237   22239   22192   22191   22237   22238
   22192   22191   22193   22194   22193   22191   22195   22198
   22193   22191   22195   22197   22193   22191   22195   22196
   22193   22191   22237   22234   22193   22191   22237   22239
   22193   22191   22237   22238   22195   22191   22193   22194
   22237   22191   22193   22194   22195   22198   22199   22201
   22195   22198   22199   22200   22195   22198   22229   22227
   22195   22198   22229   22230   22195   22198   22229   22234
   22195   22191   22237   22234   22195   22191   22237   22239
   22195   22191   22237   22238   22196   22195   22198   22199
   22196   22195   22198   22229   22237   22191   22195   22196
   22197   22195   22198   22199   22197   22195   22198   22229
   22237   22191   22195   22197   22198   22199   22201   22204
   22198   22199   22201   22203   22198   22199   22201   22202
   22224   22227   22229   22198   22228   22227   22229   22198
   22204   22227   22229   22198   22198   22229   22230   22233
   22198   22229   22230   22232   22198   22229   22230   22231
   22198   22229   22234   22236   22198   22229   22234   22235
   22198   22229   22234   22237   22237   22191   22195   22198
   22199   22201   22204   22206   22199   22201   22204   22227
   22199   22201   22204   22205   22199   22198   22229   22227
   22199   22198   22229   22230   22199   22198   22229   22234
   22200   22199   22201   22204   22200   22199   22201   22203
   22200   22199   22201   22202   22229   22198   22199   22200
   22201   22204   22206   22208   22201   22204   22206   22216
   22201   22204   22206   22207   22201   22204   22227   22224
   22201   22204   22227   22229   22201   22204   22227   22228
   22229   22198   22199   22201   22202   22201   22204   22206
   22202   22201   22204   22227   22202   22201   22204   22205
   22203   22201   22204   22206   22203   22201   22204   22227
   22203   22201   22204   22205   22204   22206   22208   22211
   22204   22206   22208   22210   22204   22206   22208   22209
   22204   22206   22216   22214   22204   22206   22216   22217
   22204   22206   22216   22221   22226   22224   22227   22204
   22225   22224   22227   22204   22221   22224   22227   22204
   22204   22227   22229   22230   22204   22227   22229   22234
   22205   22204   22206   22208   22205   22204   22206   22216
   22205   22204   22206   22207   22205   22204   22227   22224
   22205   22204   22227   22229   22205   22204   22227   22228
   22206   22208   22211   22214   22206   22208   22211   22213
   22206   22208   22211   22212   22240   22214   22216   22206
   22215   22214   22216   22206   22211   22214   22216   22206
   22206   22216   22217   22220   22206   22216   22217   22219
   22206   22216   22217   22218   22206   22216   22221   22224
   22206   22216   22221   22223   22206   22216   22221   22222
   22206   22204   22227   22224   22206   22204   22227   22229
   22206   22204   22227   22228   22207   22206   22208   22211
   22207   22206   22208   22210   22207   22206   22208   22209
   22207   22206   22216   22214   22207   22206   22216   22217
   22207   22206   22216   22221   22227   22204   22206   22207
   22208   22211   22214   22240   22208   22211   22214   22216
   22208   22211   22214   22215   22208   22206   22216   22214
   22208   22206   22216   22217   22208   22206   22216   22221
   22227   22204   22206   22208   22209   22208   22211   22214
   22209   22208   22211   22213   22209   22208   22211   22212
   22216   22206   22208   22209   22210   22208   22211   22214
   22210   22208   22211   22213   22210   22208   22211   22212
   22216   22206   22208   22210   22211   22214   22240   22246
   22211   22214   22240   22242   22211   22214   22240   22241
   22211   22214   22216   22217   22211   22214   22216   22221
   22216   22206   22208   22211   22212   22211   22214   22240
   22212   22211   22214   22216   22212   22211   22214   22215
   22213   22211   22214   22240   22213   22211   22214   22216
   22213   22211   22214   22215   22214   22240   22246   22249
   22214   22240   22246   22248   22214   22240   22246   22247
   22214   22240   22242   22245   22214   22240   22242   22244
   22214   22240   22242   22243   22214   22216   22217   22220
   22214   22216   22217   22219   22214   22216   22217   22218
   22214   22216   22221   22224   22214   22216   22221   22223
   22214   22216   22221   22222   22215   22214   22240   22246
   22215   22214   22240   22242   22215   22214   22240   22241
   22215   22214   22216   22217   22215   22214   22216   22221
   22216   22214   22240   22246   22216   22214   22240   22242
   22216   22214   22240   22241   22216   22221   22224   22227
   22216   22221   22224   22226   22216   22221   22224   22225
   22227   22204   22206   22216   22240   22214   22216   22217
   22217   22216   22221   22224   22217   22216   22221   22223
   22217   22216   22221   22222   22221   22216   22217   22218
   22221   22216   22217   22219   22221   22216   22217   22220
   22221   22224   22227   22229   22221   22224   22227   22228
   22240   22214   22216   22221   22222   22221   22224   22227
   22222   22221   22224   22226   22222   22221   22224   22225
   22223   22221   22224   22227   22223   22221   22224   22226
   22223   22221   22224   22225   22224   22227   22229   22230
   22224   22227   22229   22234   22225   22224   22227   22229
   22225   22224   22227   22228   22226   22224   22227   22229
   22226   22224   22227   22228   22227   22229   22230   22233
   22227   22229   22230   22232   22227   22229   22230   22231
   22227   22229   22234   22236   22227   22229   22234   22235
   22227   22229   22234   22237   22228   22227   22229   22230
   22228   22227   22229   22234   22229   22234   22237   22239
   22229   22234   22237   22238   22230   22229   22234   22236
   22230   22229   22234   22235   22230   22229   22234   22237
   22234   22229   22230   22231   22234   22229   22230   22232
   22234   22229   22230   22233   22235   22234   22237   22239
   22235   22234   22237   22238   22236   22234   22237   22239
   22236   22234   22237   22238   22240   22246   22249   22252
   22240   22246   22249   22251   22240   22246   22249   22250
   22241   22240   22246   22249   22241   22240   22246   22248
   22241   22240   22246   22247   22241   22240   22242   22245
   22241   22240   22242   22244   22241   22240   22242   22243
   22242   22240   22246   22249   22242   22240   22246   22248
   22242   22240   22246   22247   22246   22240   22242   22243
   22246   22240   22242   22244   22246   22240   22242   22245
   22246   22249   22252   22255   22246   22249   22252   22254
   22246   22249   22252   22253   22247   22246   22249   22252
   22247   22246   22249   22251   22247   22246   22249   22250
   22248   22246   22249   22252   22248   22246   22249   22251
   22248   22246   22249   22250   22249   22252   22255   22261
   22249   22252   22255   22257   22249   22252   22255   22256
   22250   22249   22252   22255   22250   22249   22252   22254
   22250   22249   22252   22253   22251   22249   22252   22255
   22251   22249   22252   22254   22251   22249   22252   22253
   22252   22255   22261   22264   22252   22255   22261   22263
   22252   22255   22261   22262   22252   22255   22257   22260
   22252   22255   22257   22259   22252   22255   22257   22258
   22253   22252   22255   22261   22253   22252   22255   22257
   22253   22252   22255   22256   22254   22252   22255   22261
   22254   22252   22255   22257   22254   22252   22255   22256
   22256   22255   22261   22264   22256   22255   22261   22263
   22256   22255   22261   22262   22256   22255   22257   22260
   22256   22255   22257   22259   22256   22255   22257   22258
   22257   22255   22261   22264   22257   22255   22261   22263
   22257   22255   22261   22262   22261   22255   22257   22258
   22261   22255   22257   22259   22261   22255   22257   22260
   22265   22269   22272   22273   22265   22269   22272   22303
   22303   22308   22311   22265   22310   22308   22311   22265
   22309   22308   22311   22265   22266   22265   22269   22272
   22266   22265   22269   22271   22266   22265   22269   22270
   22266   22265   22311   22308   22266   22265   22311   22313
   22266   22265   22311   22312   22266   22265   22267   22268
   22267   22265   22269   22272   22267   22265   22269   22271
   22267   22265   22269   22270   22267   22265   22311   22308
   22267   22265   22311   22313   22267   22265   22311   22312
   22269   22265   22267   22268   22311   22265   22267   22268
   22269   22272   22273   22275   22269   22272   22273   22274
   22269   22272   22303   22301   22269   22272   22303   22304
   22269   22272   22303   22308   22269   22265   22311   22308
   22269   22265   22311   22313   22269   22265   22311   22312
   22270   22269   22272   22273   22270   22269   22272   22303
   22311   22265   22269   22270   22271   22269   22272   22273
   22271   22269   22272   22303   22311   22265   22269   22271
   22272   22273   22275   22278   22272   22273   22275   22277
   22272   22273   22275   22276   22298   22301   22303   22272
   22302   22301   22303   22272   22278   22301   22303   22272
   22272   22303   22304   22307   22272   22303   22304   22306
   22272   22303   22304   22305   22272   22303   22308   22310
   22272   22303   22308   22309   22272   22303   22308   22311
   22311   22265   22269   22272   22273   22275   22278   22280
   22273   22275   22278   22301   22273   22275   22278   22279
   22273   22272   22303   22301   22273   22272   22303   22304
   22273   22272   22303   22308   22274   22273   22275   22278
   22274   22273   22275   22277   22274   22273   22275   22276
   22303   22272   22273   22274   22275   22278   22280   22282
   22275   22278   22280   22290   22275   22278   22280   22281
   22275   22278   22301   22298   22275   22278   22301   22303
   22275   22278   22301   22302   22303   22272   22273   22275
   22276   22275   22278   22280   22276   22275   22278   22301
   22276   22275   22278   22279   22277   22275   22278   22280
   22277   22275   22278   22301   22277   22275   22278   22279
   22278   22280   22282   22285   22278   22280   22282   22284
   22278   22280   22282   22283   22278   22280   22290   22288
   22278   22280   22290   22291   22278   22280   22290   22295
   22300   22298   22301   22278   22299   22298   22301   22278
   22295   22298   22301   22278   22278   22301   22303   22304
   22278   22301   22303   22308   22279   22278   22280   22282
   22279   22278   22280   22290   22279   22278   22280   22281
   22279   22278   22301   22298   22279   22278   22301   22303
   22279   22278   22301   22302   22280   22282   22285   22288
   22280   22282   22285   22287   22280   22282   22285   22286
   22314   22288   22290   22280   22289   22288   22290   22280
   22285   22288   22290   22280   22280   22290   22291   22294
   22280   22290   22291   22293   22280   22290   22291   22292
   22280   22290   22295   22298   22280   22290   22295   22297
   22280   22290   22295   22296   22280   22278   22301   22298
   22280   22278   22301   22303   22280   22278   22301   22302
   22281   22280   22282   22285   22281   22280   22282   22284
   22281   22280   22282   22283   22281   22280   22290   22288
   22281   22280   22290   22291   22281   22280   22290   22295
   22301   22278   22280   22281   22282   22285   22288   22314
   22282   22285   22288   22290   22282   22285   22288   22289
   22282   22280   22290   22288   22282   22280   22290   22291
   22282   22280   22290   22295   22301   22278   22280   22282
   22283   22282   22285   22288   22283   22282   22285   22287
   22283   22282   22285   22286   22290   22280   22282   22283
   22284   22282   22285   22288   22284   22282   22285   22287
   22284   22282   22285   22286   22290   22280   22282   22284
   22285   22288   22314   22320   22285   22288   22314   22316
   22285   22288   22314   22315   22285   22288   22290   22291
   22285   22288   22290   22295   22290   22280   22282   22285
   22286   22285   22288   22314   22286   22285   22288   22290
   22286   22285   22288   22289   22287   22285   22288   22314
   22287   22285   22288   22290   22287   22285   22288   22289
   22288   22314   22320   22323   22288   22314   22320   22322
   22288   22314   22320   22321   22288   22314   22316   22319
   22288   22314   22316   22318   22288   22314   22316   22317
   22288   22290   22291   22294   22288   22290   22291   22293
   22288   22290   22291   22292   22288   22290   22295   22298
   22288   22290   22295   22297   22288   22290   22295   22296
   22289   22288   22314   22320   22289   22288   22314   22316
   22289   22288   22314   22315   22289   22288   22290   22291
   22289   22288   22290   22295   22290   22288   22314   22320
   22290   22288   22314   22316   22290   22288   22314   22315
   22290   22295   22298   22301   22290   22295   22298   22300
   22290   22295   22298   22299   22301   22278   22280   22290
   22314   22288   22290   22291   22291   22290   22295   22298
   22291   22290   22295   22297   22291   22290   22295   22296
   22295   22290   22291   22292   22295   22290   22291   22293
   22295   22290   22291   22294   22295   22298   22301   22303
   22295   22298   22301   22302   22314   22288   22290   22295
   22296   22295   22298   22301   22296   22295   22298   22300
   22296   22295   22298   22299   22297   22295   22298   22301
   22297   22295   22298   22300   22297   22295   22298   22299
   22298   22301   22303   22304   22298   22301   22303   22308
   22299   22298   22301   22303   22299   22298   22301   22302
   22300   22298   22301   22303   22300   22298   22301   22302
   22301   22303   22304   22307   22301   22303   22304   22306
   22301   22303   22304   22305   22301   22303   22308   22310
   22301   22303   22308   22309   22301   22303   22308   22311
   22302   22301   22303   22304   22302   22301   22303   22308
   22303   22308   22311   22313   22303   22308   22311   22312
   22304   22303   22308   22310   22304   22303   22308   22309
   22304   22303   22308   22311   22308   22303   22304   22305
   22308   22303   22304   22306   22308   22303   22304   22307
   22309   22308   22311   22313   22309   22308   22311   22312
   22310   22308   22311   22313   22310   22308   22311   22312
   22314   22320   22323   22326   22314   22320   22323   22325
   22314   22320   22323   22324   22315   22314   22320   22323
   22315   22314   22320   22322   22315   22314   22320   22321
   22315   22314   22316   22319   22315   22314   22316   22318
   22315   22314   22316   22317   22316   22314   22320   22323
   22316   22314   22320   22322   22316   22314   22320   22321
   22320   22314   22316   22317   22320   22314   22316   22318
   22320   22314   22316   22319   22320   22323   22326   22329
   22320   22323   22326   22328   22320   22323   22326   22327
   22321   22320   22323   22326   22321   22320   22323   22325
   22321   22320   22323   22324   22322   22320   22323   22326
   22322   22320   22323   22325   22322   22320   22323   22324
   22323   22326   22329   22335   22323   22326   22329   22331
   22323   22326   22329   22330   22324   22323   22326   22329
   22324   22323   22326   22328   22324   22323   22326   22327
   22325   22323   22326   22329   22325   22323   22326   22328
   22325   22323   22326   22327   22326   22329   22335   22338
   22326   22329   22335   22337   22326   22329   22335   22336
   22326   22329   22331   22334   22326   22329   22331   22333
   22326   22329   22331   22332   22327   22326   22329   22335
   22327   22326   22329   22331   22327   22326   22329   22330
   22328   22326   22329   22335   22328   22326   22329   22331
   22328   22326   22329   22330   22330   22329   22335   22338
   22330   22329   22335   22337   22330   22329   22335   22336
   22330   22329   22331   22334   22330   22329   22331   22333
   22330   22329   22331   22332   22331   22329   22335   22338
   22331   22329   22335   22337   22331   22329   22335   22336
   22335   22329   22331   22332   22335   22329   22331   22333
   22335   22329   22331   22334   22339   22343   22346   22347
   22339   22343   22346   22377   22377   22382   22385   22339
   22384   22382   22385   22339   22383   22382   22385   22339
   22340   22339   22343   22346   22340   22339   22343   22345
   22340   22339   22343   22344   22340   22339   22385   22382
   22340   22339   22385   22387   22340   22339   22385   22386
   22340   22339   22341   22342   22341   22339   22343   22346
   22341   22339   22343   22345   22341   22339   22343   22344
   22341   22339   22385   22382   22341   22339   22385   22387
   22341   22339   22385   22386   22343   22339   22341   22342
   22385   22339   22341   22342   22343   22346   22347   22349
   22343   22346   22347   22348   22343   22346   22377   22375
   22343   22346   22377   22378   22343   22346   22377   22382
   22343   22339   22385   22382   22343   22339   22385   22387
   22343   22339   22385   22386   22344   22343   22346   22347
   22344   22343   22346   22377   22385   22339   22343   22344
   22345   22343   22346   22347   22345   22343   22346   22377
   22385   22339   22343   22345   22346   22347   22349   22352
   22346   22347   22349   22351   22346   22347   22349   22350
   22372   22375   22377   22346   22376   22375   22377   22346
   22352   22375   22377   22346   22346   22377   22378   22381
   22346   22377   22378   22380   22346   22377   22378   22379
   22346   22377   22382   22384   22346   22377   22382   22383
   22346   22377   22382   22385   22385   22339   22343   22346
   22347   22349   22352   22354   22347   22349   22352   22375
   22347   22349   22352   22353   22347   22346   22377   22375
   22347   22346   22377   22378   22347   22346   22377   22382
   22348   22347   22349   22352   22348   22347   22349   22351
   22348   22347   22349   22350   22377   22346   22347   22348
   22349   22352   22354   22356   22349   22352   22354   22364
   22349   22352   22354   22355   22349   22352   22375   22372
   22349   22352   22375   22377   22349   22352   22375   22376
   22377   22346   22347   22349   22350   22349   22352   22354
   22350   22349   22352   22375   22350   22349   22352   22353
   22351   22349   22352   22354   22351   22349   22352   22375
   22351   22349   22352   22353   22352   22354   22356   22359
   22352   22354   22356   22358   22352   22354   22356   22357
   22352   22354   22364   22362   22352   22354   22364   22365
   22352   22354   22364   22369   22374   22372   22375   22352
   22373   22372   22375   22352   22369   22372   22375   22352
   22352   22375   22377   22378   22352   22375   22377   22382
   22353   22352   22354   22356   22353   22352   22354   22364
   22353   22352   22354   22355   22353   22352   22375   22372
   22353   22352   22375   22377   22353   22352   22375   22376
   22354   22356   22359   22362   22354   22356   22359   22361
   22354   22356   22359   22360   22388   22362   22364   22354
   22363   22362   22364   22354   22359   22362   22364   22354
   22354   22364   22365   22368   22354   22364   22365   22367
   22354   22364   22365   22366   22354   22364   22369   22372
   22354   22364   22369   22371   22354   22364   22369   22370
   22354   22352   22375   22372   22354   22352   22375   22377
   22354   22352   22375   22376   22355   22354   22356   22359
   22355   22354   22356   22358   22355   22354   22356   22357
   22355   22354   22364   22362   22355   22354   22364   22365
   22355   22354   22364   22369   22375   22352   22354   22355
   22356   22359   22362   22388   22356   22359   22362   22364
   22356   22359   22362   22363   22356   22354   22364   22362
   22356   22354   22364   22365   22356   22354   22364   22369
   22375   22352   22354   22356   22357   22356   22359   22362
   22357   22356   22359   22361   22357   22356   22359   22360
   22364   22354   22356   22357   22358   22356   22359   22362
   22358   22356   22359   22361   22358   22356   22359   22360
   22364   22354   22356   22358   22359   22362   22388   22394
   22359   22362   22388   22390   22359   22362   22388   22389
   22359   22362   22364   22365   22359   22362   22364   22369
   22364   22354   22356   22359   22360   22359   22362   22388
   22360   22359   22362   22364   22360   22359   22362   22363
   22361   22359   22362   22388   22361   22359   22362   22364
   22361   22359   22362   22363   22362   22388   22394   22397
   22362   22388   22394   22396   22362   22388   22394   22395
   22362   22388   22390   22393   22362   22388   22390   22392
   22362   22388   22390   22391   22362   22364   22365   22368
   22362   22364   22365   22367   22362   22364   22365   22366
   22362   22364   22369   22372   22362   22364   22369   22371
   22362   22364   22369   22370   22363   22362   22388   22394
   22363   22362   22388   22390   22363   22362   22388   22389
   22363   22362   22364   22365   22363   22362   22364   22369
   22364   22362   22388   22394   22364   22362   22388   22390
   22364   22362   22388   22389   22364   22369   22372   22375
   22364   22369   22372   22374   22364   22369   22372   22373
   22375   22352   22354   22364   22388   22362   22364   22365
   22365   22364   22369   22372   22365   22364   22369   22371
   22365   22364   22369   22370   22369   22364   22365   22366
   22369   22364   22365   22367   22369   22364   22365   22368
   22369   22372   22375   22377   22369   22372   22375   22376
   22388   22362   22364   22369   22370   22369   22372   22375
   22370   22369   22372   22374   22370   22369   22372   22373
   22371   22369   22372   22375   22371   22369   22372   22374
   22371   22369   22372   22373   22372   22375   22377   22378
   22372   22375   22377   22382   22373   22372   22375   22377
   22373   22372   22375   22376   22374   22372   22375   22377
   22374   22372   22375   22376   22375   22377   22378   22381
   22375   22377   22378   22380   22375   22377   22378   22379
   22375   22377   22382   22384   22375   22377   22382   22383
   22375   22377   22382   22385   22376   22375   22377   22378
   22376   22375   22377   22382   22377   22382   22385   22387
   22377   22382   22385   22386   22378   22377   22382   22384
   22378   22377   22382   22383   22378   22377   22382   22385
   22382   22377   22378   22379   22382   22377   22378   22380
   22382   22377   22378   22381   22383   22382   22385   22387
   22383   22382   22385   22386   22384   22382   22385   22387
   22384   22382   22385   22386   22388   22394   22397   22400
   22388   22394   22397   22399   22388   22394   22397   22398
   22389   22388   22394   22397   22389   22388   22394   22396
   22389   22388   22394   22395   22389   22388   22390   22393
   22389   22388   22390   22392   22389   22388   22390   22391
   22390   22388   22394   22397   22390   22388   22394   22396
   22390   22388   22394   22395   22394   22388   22390   22391
   22394   22388   22390   22392   22394   22388   22390   22393
   22394   22397   22400   22403   22394   22397   22400   22402
   22394   22397   22400   22401   22395   22394   22397   22400
   22395   22394   22397   22399   22395   22394   22397   22398
   22396   22394   22397   22400   22396   22394   22397   22399
   22396   22394   22397   22398   22397   22400   22403   22409
   22397   22400   22403   22405   22397   22400   22403   22404
   22398   22397   22400   22403   22398   22397   22400   22402
   22398   22397   22400   22401   22399   22397   22400   22403
   22399   22397   22400   22402   22399   22397   22400   22401
   22400   22403   22409   22412   22400   22403   22409   22411
   22400   22403   22409   22410   22400   22403   22405   22408
   22400   22403   22405   22407   22400   22403   22405   22406
   22401   22400   22403   22409   22401   22400   22403   22405
   22401   22400   22403   22404   22402   22400   22403   22409
   22402   22400   22403   22405   22402   22400   22403   22404
   22404   22403   22409   22412   22404   22403   22409   22411
   22404   22403   22409   22410   22404   22403   22405   22408
   22404   22403   22405   22407   22404   22403   22405   22406
   22405   22403   22409   22412   22405   22403   22409   22411
   22405   22403   22409   22410   22409   22403   22405   22406
   22409   22403   22405   22407   22409   22403   22405   22408
   22413   22417   22420   22421   22413   22417   22420   22451
   22451   22456   22459   22413   22458   22456   22459   22413
   22457   22456   22459   22413   22414   22413   22417   22420
   22414   22413   22417   22419   22414   22413   22417   22418
   22414   22413   22459   22456   22414   22413   22459   22461
   22414   22413   22459   22460   22414   22413   22415   22416
   22415   22413   22417   22420   22415   22413   22417   22419
   22415   22413   22417   22418   22415   22413   22459   22456
   22415   22413   22459   22461   22415   22413   22459   22460
   22417   22413   22415   22416   22459   22413   22415   22416
   22417   22420   22421   22423   22417   22420   22421   22422
   22417   22420   22451   22449   22417   22420   22451   22452
   22417   22420   22451   22456   22417   22413   22459   22456
   22417   22413   22459   22461   22417   22413   22459   22460
   22418   22417   22420   22421   22418   22417   22420   22451
   22459   22413   22417   22418   22419   22417   22420   22421
   22419   22417   22420   22451   22459   22413   22417   22419
   22420   22421   22423   22426   22420   22421   22423   22425
   22420   22421   22423   22424   22446   22449   22451   22420
   22450   22449   22451   22420   22426   22449   22451   22420
   22420   22451   22452   22455   22420   22451   22452   22454
   22420   22451   22452   22453   22420   22451   22456   22458
   22420   22451   22456   22457   22420   22451   22456   22459
   22459   22413   22417   22420   22421   22423   22426   22428
   22421   22423   22426   22449   22421   22423   22426   22427
   22421   22420   22451   22449   22421   22420   22451   22452
   22421   22420   22451   22456   22422   22421   22423   22426
   22422   22421   22423   22425   22422   22421   22423   22424
   22451   22420   22421   22422   22423   22426   22428   22430
   22423   22426   22428   22438   22423   22426   22428   22429
   22423   22426   22449   22446   22423   22426   22449   22451
   22423   22426   22449   22450   22451   22420   22421   22423
   22424   22423   22426   22428   22424   22423   22426   22449
   22424   22423   22426   22427   22425   22423   22426   22428
   22425   22423   22426   22449   22425   22423   22426   22427
   22426   22428   22430   22433   22426   22428   22430   22432
   22426   22428   22430   22431   22426   22428   22438   22436
   22426   22428   22438   22439   22426   22428   22438   22443
   22448   22446   22449   22426   22447   22446   22449   22426
   22443   22446   22449   22426   22426   22449   22451   22452
   22426   22449   22451   22456   22427   22426   22428   22430
   22427   22426   22428   22438   22427   22426   22428   22429
   22427   22426   22449   22446   22427   22426   22449   22451
   22427   22426   22449   22450   22428   22430   22433   22436
   22428   22430   22433   22435   22428   22430   22433   22434
   22462   22436   22438   22428   22437   22436   22438   22428
   22433   22436   22438   22428   22428   22438   22439   22442
   22428   22438   22439   22441   22428   22438   22439   22440
   22428   22438   22443   22446   22428   22438   22443   22445
   22428   22438   22443   22444   22428   22426   22449   22446
   22428   22426   22449   22451   22428   22426   22449   22450
   22429   22428   22430   22433   22429   22428   22430   22432
   22429   22428   22430   22431   22429   22428   22438   22436
   22429   22428   22438   22439   22429   22428   22438   22443
   22449   22426   22428   22429   22430   22433   22436   22462
   22430   22433   22436   22438   22430   22433   22436   22437
   22430   22428   22438   22436   22430   22428   22438   22439
   22430   22428   22438   22443   22449   22426   22428   22430
   22431   22430   22433   22436   22431   22430   22433   22435
   22431   22430   22433   22434   22438   22428   22430   22431
   22432   22430   22433   22436   22432   22430   22433   22435
   22432   22430   22433   22434   22438   22428   22430   22432
   22433   22436   22462   22468   22433   22436   22462   22464
   22433   22436   22462   22463   22433   22436   22438   22439
   22433   22436   22438   22443   22438   22428   22430   22433
   22434   22433   22436   22462   22434   22433   22436   22438
   22434   22433   22436   22437   22435   22433   22436   22462
   22435   22433   22436   22438   22435   22433   22436   22437
   22436   22462   22468   22471   22436   22462   22468   22470
   22436   22462   22468   22469   22436   22462   22464   22467
   22436   22462   22464   22466   22436   22462   22464   22465
   22436   22438   22439   22442   22436   22438   22439   22441
   22436   22438   22439   22440   22436   22438   22443   22446
   22436   22438   22443   22445   22436   22438   22443   22444
   22437   22436   22462   22468   22437   22436   22462   22464
   22437   22436   22462   22463   22437   22436   22438   22439
   22437   22436   22438   22443   22438   22436   22462   22468
   22438   22436   22462   22464   22438   22436   22462   22463
   22438   22443   22446   22449   22438   22443   22446   22448
   22438   22443   22446   22447   22449   22426   22428   22438
   22462   22436   22438   22439   22439   22438   22443   22446
   22439   22438   22443   22445   22439   22438   22443   22444
   22443   22438   22439   22440   22443   22438   22439   22441
   22443   22438   22439   22442   22443   22446   22449   22451
   22443   22446   22449   22450   22462   22436   22438   22443
   22444   22443   22446   22449   22444   22443   22446   22448
   22444   22443   22446   22447   22445   22443   22446   22449
   22445   22443   22446   22448   22445   22443   22446   22447
   22446   22449   22451   22452   22446   22449   22451   22456
   22447   22446   22449   22451   22447   22446   22449   22450
   22448   22446   22449   22451   22448   22446   22449   22450
   22449   22451   22452   22455   22449   22451   22452   22454
   22449   22451   22452   22453   22449   22451   22456   22458
   22449   22451   22456   22457   22449   22451   22456   22459
   22450   22449   22451   22452   22450   22449   22451   22456
   22451   22456   22459   22461   22451   22456   22459   22460
   22452   22451   22456   22458   22452   22451   22456   22457
   22452   22451   22456   22459   22456   22451   22452   22453
   22456   22451   22452   22454   22456   22451   22452   22455
   22457   22456   22459   22461   22457   22456   22459   22460
   22458   22456   22459   22461   22458   22456   22459   22460
   22462   22468   22471   22474   22462   22468   22471   22473
   22462   22468   22471   22472   22463   22462   22468   22471
   22463   22462   22468   22470   22463   22462   22468   22469
   22463   22462   22464   22467   22463   22462   22464   22466
   22463   22462   22464   22465   22464   22462   22468   22471
   22464   22462   22468   22470   22464   22462   22468   22469
   22468   22462   22464   22465   22468   22462   22464   22466
   22468   22462   22464   22467   22468   22471   22474   22477
   22468   22471   22474   22476   22468   22471   22474   22475
   22469   22468   22471   22474   22469   22468   22471   22473
   22469   22468   22471   22472   22470   22468   22471   22474
   22470   22468   22471   22473   22470   22468   22471   22472
   22471   22474   22477   22483   22471   22474   22477   22479
   22471   22474   22477   22478   22472   22471   22474   22477
   22472   22471   22474   22476   22472   22471   22474   22475
   22473   22471   22474   22477   22473   22471   22474   22476
   22473   22471   22474   22475   22474   22477   22483   22486
   22474   22477   22483   22485   22474   22477   22483   22484
   22474   22477   22479   22482   22474   22477   22479   22481
   22474   22477   22479   22480   22475   22474   22477   22483
   22475   22474   22477   22479   22475   22474   22477   22478
   22476   22474   22477   22483   22476   22474   22477   22479
   22476   22474   22477   22478   22478   22477   22483   22486
   22478   22477   22483   22485   22478   22477   22483   22484
   22478   22477   22479   22482   22478   22477   22479   22481
   22478   22477   22479   22480   22479   22477   22483   22486
   22479   22477   22483   22485   22479   22477   22483   22484
   22483   22477   22479   22480   22483   22477   22479   22481
   22483   22477   22479   22482   22487   22491   22494   22495
   22487   22491   22494   22525   22525   22530   22533   22487
   22532   22530   22533   22487   22531   22530   22533   22487
   22488   22487   22491   22494   22488   22487   22491   22493
   22488   22487   22491   22492   22488   22487   22533   22530
   22488   22487   22533   22535   22488   22487   22533   22534
   22488   22487   22489   22490   22489   22487   22491   22494
   22489   22487   22491   22493   22489   22487   22491   22492
   22489   22487   22533   22530   22489   22487   22533   22535
   22489   22487   22533   22534   22491   22487   22489   22490
   22533   22487   22489   22490   22491   22494   22495   22497
   22491   22494   22495   22496   22491   22494   22525   22523
   22491   22494   22525   22526   22491   22494   22525   22530
   22491   22487   22533   22530   22491   22487   22533   22535
   22491   22487   22533   22534   22492   22491   22494   22495
   22492   22491   22494   22525   22533   22487   22491   22492
   22493   22491   22494   22495   22493   22491   22494   22525
   22533   22487   22491   22493   22494   22495   22497   22500
   22494   22495   22497   22499   22494   22495   22497   22498
   22520   22523   22525   22494   22524   22523   22525   22494
   22500   22523   22525   22494   22494   22525   22526   22529
   22494   22525   22526   22528   22494   22525   22526   22527
   22494   22525   22530   22532   22494   22525   22530   22531
   22494   22525   22530   22533   22533   22487   22491   22494
   22495   22497   22500   22502   22495   22497   22500   22523
   22495   22497   22500   22501   22495   22494   22525   22523
   22495   22494   22525   22526   22495   22494   22525   22530
   22496   22495   22497   22500   22496   22495   22497   22499
   22496   22495   22497   22498   22525   22494   22495   22496
   22497   22500   22502   22504   22497   22500   22502   22512
   22497   22500   22502   22503   22497   22500   22523   22520
   22497   22500   22523   22525   22497   22500   22523   22524
   22525   22494   22495   22497   22498   22497   22500   22502
   22498   22497   22500   22523   22498   22497   22500   22501
   22499   22497   22500   22502   22499   22497   22500   22523
   22499   22497   22500   22501   22500   22502   22504   22507
   22500   22502   22504   22506   22500   22502   22504   22505
   22500   22502   22512   22510   22500   22502   22512   22513
   22500   22502   22512   22517   22522   22520   22523   22500
   22521   22520   22523   22500   22517   22520   22523   22500
   22500   22523   22525   22526   22500   22523   22525   22530
   22501   22500   22502   22504   22501   22500   22502   22512
   22501   22500   22502   22503   22501   22500   22523   22520
   22501   22500   22523   22525   22501   22500   22523   22524
   22502   22504   22507   22510   22502   22504   22507   22509
   22502   22504   22507   22508   22536   22510   22512   22502
   22511   22510   22512   22502   22507   22510   22512   22502
   22502   22512   22513   22516   22502   22512   22513   22515
   22502   22512   22513   22514   22502   22512   22517   22520
   22502   22512   22517   22519   22502   22512   22517   22518
   22502   22500   22523   22520   22502   22500   22523   22525
   22502   22500   22523   22524   22503   22502   22504   22507
   22503   22502   22504   22506   22503   22502   22504   22505
   22503   22502   22512   22510   22503   22502   22512   22513
   22503   22502   22512   22517   22523   22500   22502   22503
   22504   22507   22510   22536   22504   22507   22510   22512
   22504   22507   22510   22511   22504   22502   22512   22510
   22504   22502   22512   22513   22504   22502   22512   22517
   22523   22500   22502   22504   22505   22504   22507   22510
   22505   22504   22507   22509   22505   22504   22507   22508
   22512   22502   22504   22505   22506   22504   22507   22510
   22506   22504   22507   22509   22506   22504   22507   22508
   22512   22502   22504   22506   22507   22510   22536   22542
   22507   22510   22536   22538   22507   22510   22536   22537
   22507   22510   22512   22513   22507   22510   22512   22517
   22512   22502   22504   22507   22508   22507   22510   22536
   22508   22507   22510   22512   22508   22507   22510   22511
   22509   22507   22510   22536   22509   22507   22510   22512
   22509   22507   22510   22511   22510   22536   22542   22545
   22510   22536   22542   22544   22510   22536   22542   22543
   22510   22536   22538   22541   22510   22536   22538   22540
   22510   22536   22538   22539   22510   22512   22513   22516
   22510   22512   22513   22515   22510   22512   22513   22514
   22510   22512   22517   22520   22510   22512   22517   22519
   22510   22512   22517   22518   22511   22510   22536   22542
   22511   22510   22536   22538   22511   22510   22536   22537
   22511   22510   22512   22513   22511   22510   22512   22517
   22512   22510   22536   22542   22512   22510   22536   22538
   22512   22510   22536   22537   22512   22517   22520   22523
   22512   22517   22520   22522   22512   22517   22520   22521
   22523   22500   22502   22512   22536   22510   22512   22513
   22513   22512   22517   22520   22513   22512   22517   22519
   22513   22512   22517   22518   22517   22512   22513   22514
   22517   22512   22513   22515   22517   22512   22513   22516
   22517   22520   22523   22525   22517   22520   22523   22524
   22536   22510   22512   22517   22518   22517   22520   22523
   22518   22517   22520   22522   22518   22517   22520   22521
   22519   22517   22520   22523   22519   22517   22520   22522
   22519   22517   22520   22521   22520   22523   22525   22526
   22520   22523   22525   22530   22521   22520   22523   22525
   22521   22520   22523   22524   22522   22520   22523   22525
   22522   22520   22523   22524   22523   22525   22526   22529
   22523   22525   22526   22528   22523   22525   22526   22527
   22523   22525   22530   22532   22523   22525   22530   22531
   22523   22525   22530   22533   22524   22523   22525   22526
   22524   22523   22525   22530   22525   22530   22533   22535
   22525   22530   22533   22534   22526   22525   22530   22532
   22526   22525   22530   22531   22526   22525   22530   22533
   22530   22525   22526   22527   22530   22525   22526   22528
   22530   22525   22526   22529   22531   22530   22533   22535
   22531   22530   22533   22534   22532   22530   22533   22535
   22532   22530   22533   22534   22536   22542   22545   22548
   22536   22542   22545   22547   22536   22542   22545   22546
   22537   22536   22542   22545   22537   22536   22542   22544
   22537   22536   22542   22543   22537   22536   22538   22541
   22537   22536   22538   22540   22537   22536   22538   22539
   22538   22536   22542   22545   22538   22536   22542   22544
   22538   22536   22542   22543   22542   22536   22538   22539
   22542   22536   22538   22540   22542   22536   22538   22541
   22542   22545   22548   22551   22542   22545   22548   22550
   22542   22545   22548   22549   22543   22542   22545   22548
   22543   22542   22545   22547   22543   22542   22545   22546
   22544   22542   22545   22548   22544   22542   22545   22547
   22544   22542   22545   22546   22545   22548   22551   22557
   22545   22548   22551   22553   22545   22548   22551   22552
   22546   22545   22548   22551   22546   22545   22548   22550
   22546   22545   22548   22549   22547   22545   22548   22551
   22547   22545   22548   22550   22547   22545   22548   22549
   22548   22551   22557   22560   22548   22551   22557   22559
   22548   22551   22557   22558   22548   22551   22553   22556
   22548   22551   22553   22555   22548   22551   22553   22554
   22549   22548   22551   22557   22549   22548   22551   22553
   22549   22548   22551   22552   22550   22548   22551   22557
   22550   22548   22551   22553   22550   22548   22551   22552
   22552   22551   22557   22560   22552   22551   22557   22559
   22552   22551   22557   22558   22552   22551   22553   22556
   22552   22551   22553   22555   22552   22551   22553   22554
   22553   22551   22557   22560   22553   22551   22557   22559
   22553   22551   22557   22558   22557   22551   22553   22554
   22557   22551   22553   22555   22557   22551   22553   22556
   22561   22565   22568   22569   22561   22565   22568   22599
   22599   22604   22607   22561   22606   22604   22607   22561
   22605   22604   22607   22561   22562   22561   22565   22568
   22562   22561   22565   22567   22562   22561   22565   22566
   22562   22561   22607   22604   22562   22561   22607   22609
   22562   22561   22607   22608   22562   22561   22563   22564
   22563   22561   22565   22568   22563   22561   22565   22567
   22563   22561   22565   22566   22563   22561   22607   22604
   22563   22561   22607   22609   22563   22561   22607   22608
   22565   22561   22563   22564   22607   22561   22563   22564
   22565   22568   22569   22571   22565   22568   22569   22570
   22565   22568   22599   22597   22565   22568   22599   22600
   22565   22568   22599   22604   22565   22561   22607   22604
   22565   22561   22607   22609   22565   22561   22607   22608
   22566   22565   22568   22569   22566   22565   22568   22599
   22607   22561   22565   22566   22567   22565   22568   22569
   22567   22565   22568   22599   22607   22561   22565   22567
   22568   22569   22571   22574   22568   22569   22571   22573
   22568   22569   22571   22572   22594   22597   22599   22568
   22598   22597   22599   22568   22574   22597   22599   22568
   22568   22599   22600   22603   22568   22599   22600   22602
   22568   22599   22600   22601   22568   22599   22604   22606
   22568   22599   22604   22605   22568   22599   22604   22607
   22607   22561   22565   22568   22569   22571   22574   22576
   22569   22571   22574   22597   22569   22571   22574   22575
   22569   22568   22599   22597   22569   22568   22599   22600
   22569   22568   22599   22604   22570   22569   22571   22574
   22570   22569   22571   22573   22570   22569   22571   22572
   22599   22568   22569   22570   22571   22574   22576   22578
   22571   22574   22576   22586   22571   22574   22576   22577
   22571   22574   22597   22594   22571   22574   22597   22599
   22571   22574   22597   22598   22599   22568   22569   22571
   22572   22571   22574   22576   22572   22571   22574   22597
   22572   22571   22574   22575   22573   22571   22574   22576
   22573   22571   22574   22597   22573   22571   22574   22575
   22574   22576   22578   22581   22574   22576   22578   22580
   22574   22576   22578   22579   22574   22576   22586   22584
   22574   22576   22586   22587   22574   22576   22586   22591
   22596   22594   22597   22574   22595   22594   22597   22574
   22591   22594   22597   22574   22574   22597   22599   22600
   22574   22597   22599   22604   22575   22574   22576   22578
   22575   22574   22576   22586   22575   22574   22576   22577
   22575   22574   22597   22594   22575   22574   22597   22599
   22575   22574   22597   22598   22576   22578   22581   22584
   22576   22578   22581   22583   22576   22578   22581   22582
   22610   22584   22586   22576   22585   22584   22586   22576
   22581   22584   22586   22576   22576   22586   22587   22590
   22576   22586   22587   22589   22576   22586   22587   22588
   22576   22586   22591   22594   22576   22586   22591   22593
   22576   22586   22591   22592   22576   22574   22597   22594
   22576   22574   22597   22599   22576   22574   22597   22598
   22577   22576   22578   22581   22577   22576   22578   22580
   22577   22576   22578   22579   22577   22576   22586   22584
   22577   22576   22586   22587   22577   22576   22586   22591
   22597   22574   22576   22577   22578   22581   22584   22610
   22578   22581   22584   22586   22578   22581   22584   22585
   22578   22576   22586   22584   22578   22576   22586   22587
   22578   22576   22586   22591   22597   22574   22576   22578
   22579   22578   22581   22584   22579   22578   22581   22583
   22579   22578   22581   22582   22586   22576   22578   22579
   22580   22578   22581   22584   22580   22578   22581   22583
   22580   22578   22581   22582   22586   22576   22578   22580
   22581   22584   22610   22616   22581   22584   22610   22612
   22581   22584   22610   22611   22581   22584   22586   22587
   22581   22584   22586   22591   22586   22576   22578   22581
   22582   22581   22584   22610   22582   22581   22584   22586
   22582   22581   22584   22585   22583   22581   22584   22610
   22583   22581   22584   22586   22583   22581   22584   22585
   22584   22610   22616   22619   22584   22610   22616   22618
   22584   22610   22616   22617   22584   22610   22612   22615
   22584   22610   22612   22614   22584   22610   22612   22613
   22584   22586   22587   22590   22584   22586   22587   22589
   22584   22586   22587   22588   22584   22586   22591   22594
   22584   22586   22591   22593   22584   22586   22591   22592
   22585   22584   22610   22616   22585   22584   22610   22612
   22585   22584   22610   22611   22585   22584   22586   22587
   22585   22584   22586   22591   22586   22584   22610   22616
   22586   22584   22610   22612   22586   22584   22610   22611
   22586   22591   22594   22597   22586   22591   22594   22596
   22586   22591   22594   22595   22597   22574   22576   22586
   22610   22584   22586   22587   22587   22586   22591   22594
   22587   22586   22591   22593   22587   22586   22591   22592
   22591   22586   22587   22588   22591   22586   22587   22589
   22591   22586   22587   22590   22591   22594   22597   22599
   22591   22594   22597   22598   22610   22584   22586   22591
   22592   22591   22594   22597   22592   22591   22594   22596
   22592   22591   22594   22595   22593   22591   22594   22597
   22593   22591   22594   22596   22593   22591   22594   22595
   22594   22597   22599   22600   22594   22597   22599   22604
   22595   22594   22597   22599   22595   22594   22597   22598
   22596   22594   22597   22599   22596   22594   22597   22598
   22597   22599   22600   22603   22597   22599   22600   22602
   22597   22599   22600   22601   22597   22599   22604   22606
   22597   22599   22604   22605   22597   22599   22604   22607
   22598   22597   22599   22600   22598   22597   22599   22604
   22599   22604   22607   22609   22599   22604   22607   22608
   22600   22599   22604   22606   22600   22599   22604   22605
   22600   22599   22604   22607   22604   22599   22600   22601
   22604   22599   22600   22602   22604   22599   22600   22603
   22605   22604   22607   22609   22605   22604   22607   22608
   22606   22604   22607   22609   22606   22604   22607   22608
   22610   22616   22619   22622   22610   22616   22619   22621
   22610   22616   22619   22620   22611   22610   22616   22619
   22611   22610   22616   22618   22611   22610   22616   22617
   22611   22610   22612   22615   22611   22610   22612   22614
   22611   22610   22612   22613   22612   22610   22616   22619
   22612   22610   22616   22618   22612   22610   22616   22617
   22616   22610   22612   22613   22616   22610   22612   22614
   22616   22610   22612   22615   22616   22619   22622   22625
   22616   22619   22622   22624   22616   22619   22622   22623
   22617   22616   22619   22622   22617   22616   22619   22621
   22617   22616   22619   22620   22618   22616   22619   22622
   22618   22616   22619   22621   22618   22616   22619   22620
   22619   22622   22625   22631   22619   22622   22625   22627
   22619   22622   22625   22626   22620   22619   22622   22625
   22620   22619   22622   22624   22620   22619   22622   22623
   22621   22619   22622   22625   22621   22619   22622   22624
   22621   22619   22622   22623   22622   22625   22631   22634
   22622   22625   22631   22633   22622   22625   22631   22632
   22622   22625   22627   22630   22622   22625   22627   22629
   22622   22625   22627   22628   22623   22622   22625   22631
   22623   22622   22625   22627   22623   22622   22625   22626
   22624   22622   22625   22631   22624   22622   22625   22627
   22624   22622   22625   22626   22626   22625   22631   22634
   22626   22625   22631   22633   22626   22625   22631   22632
   22626   22625   22627   22630   22626   22625   22627   22629
   22626   22625   22627   22628   22627   22625   22631   22634
   22627   22625   22631   22633   22627   22625   22631   22632
   22631   22625   22627   22628   22631   22625   22627   22629
   22631   22625   22627   22630   22635   22639   22642   22643
   22635   22639   22642   22673   22673   22678   22681   22635
   22680   22678   22681   22635   22679   22678   22681   22635
   22636   22635   22639   22642   22636   22635   22639   22641
   22636   22635   22639   22640   22636   22635   22681   22678
   22636   22635   22681   22683   22636   22635   22681   22682
   22636   22635   22637   22638   22637   22635   22639   22642
   22637   22635   22639   22641   22637   22635   22639   22640
   22637   22635   22681   22678   22637   22635   22681   22683
   22637   22635   22681   22682   22639   22635   22637   22638
   22681   22635   22637   22638   22639   22642   22643   22645
   22639   22642   22643   22644   22639   22642   22673   22671
   22639   22642   22673   22674   22639   22642   22673   22678
   22639   22635   22681   22678   22639   22635   22681   22683
   22639   22635   22681   22682   22640   22639   22642   22643
   22640   22639   22642   22673   22681   22635   22639   22640
   22641   22639   22642   22643   22641   22639   22642   22673
   22681   22635   22639   22641   22642   22643   22645   22648
   22642   22643   22645   22647   22642   22643   22645   22646
   22668   22671   22673   22642   22672   22671   22673   22642
   22648   22671   22673   22642   22642   22673   22674   22677
   22642   22673   22674   22676   22642   22673   22674   22675
   22642   22673   22678   22680   22642   22673   22678   22679
   22642   22673   22678   22681   22681   22635   22639   22642
   22643   22645   22648   22650   22643   22645   22648   22671
   22643   22645   22648   22649   22643   22642   22673   22671
   22643   22642   22673   22674   22643   22642   22673   22678
   22644   22643   22645   22648   22644   22643   22645   22647
   22644   22643   22645   22646   22673   22642   22643   22644
   22645   22648   22650   22652   22645   22648   22650   22660
   22645   22648   22650   22651   22645   22648   22671   22668
   22645   22648   22671   22673   22645   22648   22671   22672
   22673   22642   22643   22645   22646   22645   22648   22650
   22646   22645   22648   22671   22646   22645   22648   22649
   22647   22645   22648   22650   22647   22645   22648   22671
   22647   22645   22648   22649   22648   22650   22652   22655
   22648   22650   22652   22654   22648   22650   22652   22653
   22648   22650   22660   22658   22648   22650   22660   22661
   22648   22650   22660   22665   22670   22668   22671   22648
   22669   22668   22671   22648   22665   22668   22671   22648
   22648   22671   22673   22674   22648   22671   22673   22678
   22649   22648   22650   22652   22649   22648   22650   22660
   22649   22648   22650   22651   22649   22648   22671   22668
   22649   22648   22671   22673   22649   22648   22671   22672
   22650   22652   22655   22658   22650   22652   22655   22657
   22650   22652   22655   22656   22684   22658   22660   22650
   22659   22658   22660   22650   22655   22658   22660   22650
   22650   22660   22661   22664   22650   22660   22661   22663
   22650   22660   22661   22662   22650   22660   22665   22668
   22650   22660   22665   22667   22650   22660   22665   22666
   22650   22648   22671   22668   22650   22648   22671   22673
   22650   22648   22671   22672   22651   22650   22652   22655
   22651   22650   22652   22654   22651   22650   22652   22653
   22651   22650   22660   22658   22651   22650   22660   22661
   22651   22650   22660   22665   22671   22648   22650   22651
   22652   22655   22658   22684   22652   22655   22658   22660
   22652   22655   22658   22659   22652   22650   22660   22658
   22652   22650   22660   22661   22652   22650   22660   22665
   22671   22648   22650   22652   22653   22652   22655   22658
   22653   22652   22655   22657   22653   22652   22655   22656
   22660   22650   22652   22653   22654   22652   22655   22658
   22654   22652   22655   22657   22654   22652   22655   22656
   22660   22650   22652   22654   22655   22658   22684   22690
   22655   22658   22684   22686   22655   22658   22684   22685
   22655   22658   22660   22661   22655   22658   22660   22665
   22660   22650   22652   22655   22656   22655   22658   22684
   22656   22655   22658   22660   22656   22655   22658   22659
   22657   22655   22658   22684   22657   22655   22658   22660
   22657   22655   22658   22659   22658   22684   22690   22693
   22658   22684   22690   22692   22658   22684   22690   22691
   22658   22684   22686   22689   22658   22684   22686   22688
   22658   22684   22686   22687   22658   22660   22661   22664
   22658   22660   22661   22663   22658   22660   22661   22662
   22658   22660   22665   22668   22658   22660   22665   22667
   22658   22660   22665   22666   22659   22658   22684   22690
   22659   22658   22684   22686   22659   22658   22684   22685
   22659   22658   22660   22661   22659   22658   22660   22665
   22660   22658   22684   22690   22660   22658   22684   22686
   22660   22658   22684   22685   22660   22665   22668   22671
   22660   22665   22668   22670   22660   22665   22668   22669
   22671   22648   22650   22660   22684   22658   22660   22661
   22661   22660   22665   22668   22661   22660   22665   22667
   22661   22660   22665   22666   22665   22660   22661   22662
   22665   22660   22661   22663   22665   22660   22661   22664
   22665   22668   22671   22673   22665   22668   22671   22672
   22684   22658   22660   22665   22666   22665   22668   22671
   22666   22665   22668   22670   22666   22665   22668   22669
   22667   22665   22668   22671   22667   22665   22668   22670
   22667   22665   22668   22669   22668   22671   22673   22674
   22668   22671   22673   22678   22669   22668   22671   22673
   22669   22668   22671   22672   22670   22668   22671   22673
   22670   22668   22671   22672   22671   22673   22674   22677
   22671   22673   22674   22676   22671   22673   22674   22675
   22671   22673   22678   22680   22671   22673   22678   22679
   22671   22673   22678   22681   22672   22671   22673   22674
   22672   22671   22673   22678   22673   22678   22681   22683
   22673   22678   22681   22682   22674   22673   22678   22680
   22674   22673   22678   22679   22674   22673   22678   22681
   22678   22673   22674   22675   22678   22673   22674   22676
   22678   22673   22674   22677   22679   22678   22681   22683
   22679   22678   22681   22682   22680   22678   22681   22683
   22680   22678   22681   22682   22684   22690   22693   22696
   22684   22690   22693   22695   22684   22690   22693   22694
   22685   22684   22690   22693   22685   22684   22690   22692
   22685   22684   22690   22691   22685   22684   22686   22689
   22685   22684   22686   22688   22685   22684   22686   22687
   22686   22684   22690   22693   22686   22684   22690   22692
   22686   22684   22690   22691   22690   22684   22686   22687
   22690   22684   22686   22688   22690   22684   22686   22689
   22690   22693   22696   22699   22690   22693   22696   22698
   22690   22693   22696   22697   22691   22690   22693   22696
   22691   22690   22693   22695   22691   22690   22693   22694
   22692   22690   22693   22696   22692   22690   22693   22695
   22692   22690   22693   22694   22693   22696   22699   22705
   22693   22696   22699   22701   22693   22696   22699   22700
   22694   22693   22696   22699   22694   22693   22696   22698
   22694   22693   22696   22697   22695   22693   22696   22699
   22695   22693   22696   22698   22695   22693   22696   22697
   22696   22699   22705   22708   22696   22699   22705   22707
   22696   22699   22705   22706   22696   22699   22701   22704
   22696   22699   22701   22703   22696   22699   22701   22702
   22697   22696   22699   22705   22697   22696   22699   22701
   22697   22696   22699   22700   22698   22696   22699   22705
   22698   22696   22699   22701   22698   22696   22699   22700
   22700   22699   22705   22708   22700   22699   22705   22707
   22700   22699   22705   22706   22700   22699   22701   22704
   22700   22699   22701   22703   22700   22699   22701   22702
   22701   22699   22705   22708   22701   22699   22705   22707
   22701   22699   22705   22706   22705   22699   22701   22702
   22705   22699   22701   22703   22705   22699   22701   22704
   22709   22713   22716   22717   22709   22713   22716   22747
   22747   22752   22755   22709   22754   22752   22755   22709
   22753   22752   22755   22709   22710   22709   22713   22716
   22710   22709   22713   22715   22710   22709   22713   22714
   22710   22709   22755   22752   22710   22709   22755   22757
   22710   22709   22755   22756   22710   22709   22711   22712
   22711   22709   22713   22716   22711   22709   22713   22715
   22711   22709   22713   22714   22711   22709   22755   22752
   22711   22709   22755   22757   22711   22709   22755   22756
   22713   22709   22711   22712   22755   22709   22711   22712
   22713   22716   22717   22719   22713   22716   22717   22718
   22713   22716   22747   22745   22713   22716   22747   22748
   22713   22716   22747   22752   22713   22709   22755   22752
   22713   22709   22755   22757   22713   22709   22755   22756
   22714   22713   22716   22717   22714   22713   22716   22747
   22755   22709   22713   22714   22715   22713   22716   22717
   22715   22713   22716   22747   22755   22709   22713   22715
   22716   22717   22719   22722   22716   22717   22719   22721
   22716   22717   22719   22720   22742   22745   22747   22716
   22746   22745   22747   22716   22722   22745   22747   22716
   22716   22747   22748   22751   22716   22747   22748   22750
   22716   22747   22748   22749   22716   22747   22752   22754
   22716   22747   22752   22753   22716   22747   22752   22755
   22755   22709   22713   22716   22717   22719   22722   22724
   22717   22719   22722   22745   22717   22719   22722   22723
   22717   22716   22747   22745   22717   22716   22747   22748
   22717   22716   22747   22752   22718   22717   22719   22722
   22718   22717   22719   22721   22718   22717   22719   22720
   22747   22716   22717   22718   22719   22722   22724   22726
   22719   22722   22724   22734   22719   22722   22724   22725
   22719   22722   22745   22742   22719   22722   22745   22747
   22719   22722   22745   22746   22747   22716   22717   22719
   22720   22719   22722   22724   22720   22719   22722   22745
   22720   22719   22722   22723   22721   22719   22722   22724
   22721   22719   22722   22745   22721   22719   22722   22723
   22722   22724   22726   22729   22722   22724   22726   22728
   22722   22724   22726   22727   22722   22724   22734   22732
   22722   22724   22734   22735   22722   22724   22734   22739
   22744   22742   22745   22722   22743   22742   22745   22722
   22739   22742   22745   22722   22722   22745   22747   22748
   22722   22745   22747   22752   22723   22722   22724   22726
   22723   22722   22724   22734   22723   22722   22724   22725
   22723   22722   22745   22742   22723   22722   22745   22747
   22723   22722   22745   22746   22724   22726   22729   22732
   22724   22726   22729   22731   22724   22726   22729   22730
   22758   22732   22734   22724   22733   22732   22734   22724
   22729   22732   22734   22724   22724   22734   22735   22738
   22724   22734   22735   22737   22724   22734   22735   22736
   22724   22734   22739   22742   22724   22734   22739   22741
   22724   22734   22739   22740   22724   22722   22745   22742
   22724   22722   22745   22747   22724   22722   22745   22746
   22725   22724   22726   22729   22725   22724   22726   22728
   22725   22724   22726   22727   22725   22724   22734   22732
   22725   22724   22734   22735   22725   22724   22734   22739
   22745   22722   22724   22725   22726   22729   22732   22758
   22726   22729   22732   22734   22726   22729   22732   22733
   22726   22724   22734   22732   22726   22724   22734   22735
   22726   22724   22734   22739   22745   22722   22724   22726
   22727   22726   22729   22732   22727   22726   22729   22731
   22727   22726   22729   22730   22734   22724   22726   22727
   22728   22726   22729   22732   22728   22726   22729   22731
   22728   22726   22729   22730   22734   22724   22726   22728
   22729   22732   22758   22764   22729   22732   22758   22760
   22729   22732   22758   22759   22729   22732   22734   22735
   22729   22732   22734   22739   22734   22724   22726   22729
   22730   22729   22732   22758   22730   22729   22732   22734
   22730   22729   22732   22733   22731   22729   22732   22758
   22731   22729   22732   22734   22731   22729   22732   22733
   22732   22758   22764   22767   22732   22758   22764   22766
   22732   22758   22764   22765   22732   22758   22760   22763
   22732   22758   22760   22762   22732   22758   22760   22761
   22732   22734   22735   22738   22732   22734   22735   22737
   22732   22734   22735   22736   22732   22734   22739   22742
   22732   22734   22739   22741   22732   22734   22739   22740
   22733   22732   22758   22764   22733   22732   22758   22760
   22733   22732   22758   22759   22733   22732   22734   22735
   22733   22732   22734   22739   22734   22732   22758   22764
   22734   22732   22758   22760   22734   22732   22758   22759
   22734   22739   22742   22745   22734   22739   22742   22744
   22734   22739   22742   22743   22745   22722   22724   22734
   22758   22732   22734   22735   22735   22734   22739   22742
   22735   22734   22739   22741   22735   22734   22739   22740
   22739   22734   22735   22736   22739   22734   22735   22737
   22739   22734   22735   22738   22739   22742   22745   22747
   22739   22742   22745   22746   22758   22732   22734   22739
   22740   22739   22742   22745   22740   22739   22742   22744
   22740   22739   22742   22743   22741   22739   22742   22745
   22741   22739   22742   22744   22741   22739   22742   22743
   22742   22745   22747   22748   22742   22745   22747   22752
   22743   22742   22745   22747   22743   22742   22745   22746
   22744   22742   22745   22747   22744   22742   22745   22746
   22745   22747   22748   22751   22745   22747   22748   22750
   22745   22747   22748   22749   22745   22747   22752   22754
   22745   22747   22752   22753   22745   22747   22752   22755
   22746   22745   22747   22748   22746   22745   22747   22752
   22747   22752   22755   22757   22747   22752   22755   22756
   22748   22747   22752   22754   22748   22747   22752   22753
   22748   22747   22752   22755   22752   22747   22748   22749
   22752   22747   22748   22750   22752   22747   22748   22751
   22753   22752   22755   22757   22753   22752   22755   22756
   22754   22752   22755   22757   22754   22752   22755   22756
   22758   22764   22767   22770   22758   22764   22767   22769
   22758   22764   22767   22768   22759   22758   22764   22767
   22759   22758   22764   22766   22759   22758   22764   22765
   22759   22758   22760   22763   22759   22758   22760   22762
   22759   22758   22760   22761   22760   22758   22764   22767
   22760   22758   22764   22766   22760   22758   22764   22765
   22764   22758   22760   22761   22764   22758   22760   22762
   22764   22758   22760   22763   22764   22767   22770   22773
   22764   22767   22770   22772   22764   22767   22770   22771
   22765   22764   22767   22770   22765   22764   22767   22769
   22765   22764   22767   22768   22766   22764   22767   22770
   22766   22764   22767   22769   22766   22764   22767   22768
   22767   22770   22773   22779   22767   22770   22773   22775
   22767   22770   22773   22774   22768   22767   22770   22773
   22768   22767   22770   22772   22768   22767   22770   22771
   22769   22767   22770   22773   22769   22767   22770   22772
   22769   22767   22770   22771   22770   22773   22779   22782
   22770   22773   22779   22781   22770   22773   22779   22780
   22770   22773   22775   22778   22770   22773   22775   22777
   22770   22773   22775   22776   22771   22770   22773   22779
   22771   22770   22773   22775   22771   22770   22773   22774
   22772   22770   22773   22779   22772   22770   22773   22775
   22772   22770   22773   22774   22774   22773   22779   22782
   22774   22773   22779   22781   22774   22773   22779   22780
   22774   22773   22775   22778   22774   22773   22775   22777
   22774   22773   22775   22776   22775   22773   22779   22782
   22775   22773   22779   22781   22775   22773   22779   22780
   22779   22773   22775   22776   22779   22773   22775   22777
   22779   22773   22775   22778   22783   22787   22790   22791
   22783   22787   22790   22821   22821   22826   22829   22783
   22828   22826   22829   22783   22827   22826   22829   22783
   22784   22783   22787   22790   22784   22783   22787   22789
   22784   22783   22787   22788   22784   22783   22829   22826
   22784   22783   22829   22831   22784   22783   22829   22830
   22784   22783   22785   22786   22785   22783   22787   22790
   22785   22783   22787   22789   22785   22783   22787   22788
   22785   22783   22829   22826   22785   22783   22829   22831
   22785   22783   22829   22830   22787   22783   22785   22786
   22829   22783   22785   22786   22787   22790   22791   22793
   22787   22790   22791   22792   22787   22790   22821   22819
   22787   22790   22821   22822   22787   22790   22821   22826
   22787   22783   22829   22826   22787   22783   22829   22831
   22787   22783   22829   22830   22788   22787   22790   22791
   22788   22787   22790   22821   22829   22783   22787   22788
   22789   22787   22790   22791   22789   22787   22790   22821
   22829   22783   22787   22789   22790   22791   22793   22796
   22790   22791   22793   22795   22790   22791   22793   22794
   22816   22819   22821   22790   22820   22819   22821   22790
   22796   22819   22821   22790   22790   22821   22822   22825
   22790   22821   22822   22824   22790   22821   22822   22823
   22790   22821   22826   22828   22790   22821   22826   22827
   22790   22821   22826   22829   22829   22783   22787   22790
   22791   22793   22796   22798   22791   22793   22796   22819
   22791   22793   22796   22797   22791   22790   22821   22819
   22791   22790   22821   22822   22791   22790   22821   22826
   22792   22791   22793   22796   22792   22791   22793   22795
   22792   22791   22793   22794   22821   22790   22791   22792
   22793   22796   22798   22800   22793   22796   22798   22808
   22793   22796   22798   22799   22793   22796   22819   22816
   22793   22796   22819   22821   22793   22796   22819   22820
   22821   22790   22791   22793   22794   22793   22796   22798
   22794   22793   22796   22819   22794   22793   22796   22797
   22795   22793   22796   22798   22795   22793   22796   22819
   22795   22793   22796   22797   22796   22798   22800   22803
   22796   22798   22800   22802   22796   22798   22800   22801
   22796   22798   22808   22806   22796   22798   22808   22809
   22796   22798   22808   22813   22818   22816   22819   22796
   22817   22816   22819   22796   22813   22816   22819   22796
   22796   22819   22821   22822   22796   22819   22821   22826
   22797   22796   22798   22800   22797   22796   22798   22808
   22797   22796   22798   22799   22797   22796   22819   22816
   22797   22796   22819   22821   22797   22796   22819   22820
   22798   22800   22803   22806   22798   22800   22803   22805
   22798   22800   22803   22804   22832   22806   22808   22798
   22807   22806   22808   22798   22803   22806   22808   22798
   22798   22808   22809   22812   22798   22808   22809   22811
   22798   22808   22809   22810   22798   22808   22813   22816
   22798   22808   22813   22815   22798   22808   22813   22814
   22798   22796   22819   22816   22798   22796   22819   22821
   22798   22796   22819   22820   22799   22798   22800   22803
   22799   22798   22800   22802   22799   22798   22800   22801
   22799   22798   22808   22806   22799   22798   22808   22809
   22799   22798   22808   22813   22819   22796   22798   22799
   22800   22803   22806   22832   22800   22803   22806   22808
   22800   22803   22806   22807   22800   22798   22808   22806
   22800   22798   22808   22809   22800   22798   22808   22813
   22819   22796   22798   22800   22801   22800   22803   22806
   22801   22800   22803   22805   22801   22800   22803   22804
   22808   22798   22800   22801   22802   22800   22803   22806
   22802   22800   22803   22805   22802   22800   22803   22804
   22808   22798   22800   22802   22803   22806   22832   22838
   22803   22806   22832   22834   22803   22806   22832   22833
   22803   22806   22808   22809   22803   22806   22808   22813
   22808   22798   22800   22803   22804   22803   22806   22832
   22804   22803   22806   22808   22804   22803   22806   22807
   22805   22803   22806   22832   22805   22803   22806   22808
   22805   22803   22806   22807   22806   22832   22838   22841
   22806   22832   22838   22840   22806   22832   22838   22839
   22806   22832   22834   22837   22806   22832   22834   22836
   22806   22832   22834   22835   22806   22808   22809   22812
   22806   22808   22809   22811   22806   22808   22809   22810
   22806   22808   22813   22816   22806   22808   22813   22815
   22806   22808   22813   22814   22807   22806   22832   22838
   22807   22806   22832   22834   22807   22806   22832   22833
   22807   22806   22808   22809   22807   22806   22808   22813
   22808   22806   22832   22838   22808   22806   22832   22834
   22808   22806   22832   22833   22808   22813   22816   22819
   22808   22813   22816   22818   22808   22813   22816   22817
   22819   22796   22798   22808   22832   22806   22808   22809
   22809   22808   22813   22816   22809   22808   22813   22815
   22809   22808   22813   22814   22813   22808   22809   22810
   22813   22808   22809   22811   22813   22808   22809   22812
   22813   22816   22819   22821   22813   22816   22819   22820
   22832   22806   22808   22813   22814   22813   22816   22819
   22814   22813   22816   22818   22814   22813   22816   22817
   22815   22813   22816   22819   22815   22813   22816   22818
   22815   22813   22816   22817   22816   22819   22821   22822
   22816   22819   22821   22826   22817   22816   22819   22821
   22817   22816   22819   22820   22818   22816   22819   22821
   22818   22816   22819   22820   22819   22821   22822   22825
   22819   22821   22822   22824   22819   22821   22822   22823
   22819   22821   22826   22828   22819   22821   22826   22827
   22819   22821   22826   22829   22820   22819   22821   22822
   22820   22819   22821   22826   22821   22826   22829   22831
   22821   22826   22829   22830   22822   22821   22826   22828
   22822   22821   22826   22827   22822   22821   22826   22829
   22826   22821   22822   22823   22826   22821   22822   22824
   22826   22821   22822   22825   22827   22826   22829   22831
   22827   22826   22829   22830   22828   22826   22829   22831
   22828   22826   22829   22830   22832   22838   22841   22844
   22832   22838   22841   22843   22832   22838   22841   22842
   22833   22832   22838   22841   22833   22832   22838   22840
   22833   22832   22838   22839   22833   22832   22834   22837
   22833   22832   22834   22836   22833   22832   22834   22835
   22834   22832   22838   22841   22834   22832   22838   22840
   22834   22832   22838   22839   22838   22832   22834   22835
   22838   22832   22834   22836   22838   22832   22834   22837
   22838   22841   22844   22847   22838   22841   22844   22846
   22838   22841   22844   22845   22839   22838   22841   22844
   22839   22838   22841   22843   22839   22838   22841   22842
   22840   22838   22841   22844   22840   22838   22841   22843
   22840   22838   22841   22842   22841   22844   22847   22853
   22841   22844   22847   22849   22841   22844   22847   22848
   22842   22841   22844   22847   22842   22841   22844   22846
   22842   22841   22844   22845   22843   22841   22844   22847
   22843   22841   22844   22846   22843   22841   22844   22845
   22844   22847   22853   22856   22844   22847   22853   22855
   22844   22847   22853   22854   22844   22847   22849   22852
   22844   22847   22849   22851   22844   22847   22849   22850
   22845   22844   22847   22853   22845   22844   22847   22849
   22845   22844   22847   22848   22846   22844   22847   22853
   22846   22844   22847   22849   22846   22844   22847   22848
   22848   22847   22853   22856   22848   22847   22853   22855
   22848   22847   22853   22854   22848   22847   22849   22852
   22848   22847   22849   22851   22848   22847   22849   22850
   22849   22847   22853   22856   22849   22847   22853   22855
   22849   22847   22853   22854   22853   22847   22849   22850
   22853   22847   22849   22851   22853   22847   22849   22852
   22857   22861   22864   22865   22857   22861   22864   22895
   22895   22900   22903   22857   22902   22900   22903   22857
   22901   22900   22903   22857   22858   22857   22861   22864
   22858   22857   22861   22863   22858   22857   22861   22862
   22858   22857   22903   22900   22858   22857   22903   22905
   22858   22857   22903   22904   22858   22857   22859   22860
   22859   22857   22861   22864   22859   22857   22861   22863
   22859   22857   22861   22862   22859   22857   22903   22900
   22859   22857   22903   22905   22859   22857   22903   22904
   22861   22857   22859   22860   22903   22857   22859   22860
   22861   22864   22865   22867   22861   22864   22865   22866
   22861   22864   22895   22893   22861   22864   22895   22896
   22861   22864   22895   22900   22861   22857   22903   22900
   22861   22857   22903   22905   22861   22857   22903   22904
   22862   22861   22864   22865   22862   22861   22864   22895
   22903   22857   22861   22862   22863   22861   22864   22865
   22863   22861   22864   22895   22903   22857   22861   22863
   22864   22865   22867   22870   22864   22865   22867   22869
   22864   22865   22867   22868   22890   22893   22895   22864
   22894   22893   22895   22864   22870   22893   22895   22864
   22864   22895   22896   22899   22864   22895   22896   22898
   22864   22895   22896   22897   22864   22895   22900   22902
   22864   22895   22900   22901   22864   22895   22900   22903
   22903   22857   22861   22864   22865   22867   22870   22872
   22865   22867   22870   22893   22865   22867   22870   22871
   22865   22864   22895   22893   22865   22864   22895   22896
   22865   22864   22895   22900   22866   22865   22867   22870
   22866   22865   22867   22869   22866   22865   22867   22868
   22895   22864   22865   22866   22867   22870   22872   22874
   22867   22870   22872   22882   22867   22870   22872   22873
   22867   22870   22893   22890   22867   22870   22893   22895
   22867   22870   22893   22894   22895   22864   22865   22867
   22868   22867   22870   22872   22868   22867   22870   22893
   22868   22867   22870   22871   22869   22867   22870   22872
   22869   22867   22870   22893   22869   22867   22870   22871
   22870   22872   22874   22877   22870   22872   22874   22876
   22870   22872   22874   22875   22870   22872   22882   22880
   22870   22872   22882   22883   22870   22872   22882   22887
   22892   22890   22893   22870   22891   22890   22893   22870
   22887   22890   22893   22870   22870   22893   22895   22896
   22870   22893   22895   22900   22871   22870   22872   22874
   22871   22870   22872   22882   22871   22870   22872   22873
   22871   22870   22893   22890   22871   22870   22893   22895
   22871   22870   22893   22894   22872   22874   22877   22880
   22872   22874   22877   22879   22872   22874   22877   22878
   22906   22880   22882   22872   22881   22880   22882   22872
   22877   22880   22882   22872   22872   22882   22883   22886
   22872   22882   22883   22885   22872   22882   22883   22884
   22872   22882   22887   22890   22872   22882   22887   22889
   22872   22882   22887   22888   22872   22870   22893   22890
   22872   22870   22893   22895   22872   22870   22893   22894
   22873   22872   22874   22877   22873   22872   22874   22876
   22873   22872   22874   22875   22873   22872   22882   22880
   22873   22872   22882   22883   22873   22872   22882   22887
   22893   22870   22872   22873   22874   22877   22880   22906
   22874   22877   22880   22882   22874   22877   22880   22881
   22874   22872   22882   22880   22874   22872   22882   22883
   22874   22872   22882   22887   22893   22870   22872   22874
   22875   22874   22877   22880   22875   22874   22877   22879
   22875   22874   22877   22878   22882   22872   22874   22875
   22876   22874   22877   22880   22876   22874   22877   22879
   22876   22874   22877   22878   22882   22872   22874   22876
   22877   22880   22906   22912   22877   22880   22906   22908
   22877   22880   22906   22907   22877   22880   22882   22883
   22877   22880   22882   22887   22882   22872   22874   22877
   22878   22877   22880   22906   22878   22877   22880   22882
   22878   22877   22880   22881   22879   22877   22880   22906
   22879   22877   22880   22882   22879   22877   22880   22881
   22880   22906   22912   22915   22880   22906   22912   22914
   22880   22906   22912   22913   22880   22906   22908   22911
   22880   22906   22908   22910   22880   22906   22908   22909
   22880   22882   22883   22886   22880   22882   22883   22885
   22880   22882   22883   22884   22880   22882   22887   22890
   22880   22882   22887   22889   22880   22882   22887   22888
   22881   22880   22906   22912   22881   22880   22906   22908
   22881   22880   22906   22907   22881   22880   22882   22883
   22881   22880   22882   22887   22882   22880   22906   22912
   22882   22880   22906   22908   22882   22880   22906   22907
   22882   22887   22890   22893   22882   22887   22890   22892
   22882   22887   22890   22891   22893   22870   22872   22882
   22906   22880   22882   22883   22883   22882   22887   22890
   22883   22882   22887   22889   22883   22882   22887   22888
   22887   22882   22883   22884   22887   22882   22883   22885
   22887   22882   22883   22886   22887   22890   22893   22895
   22887   22890   22893   22894   22906   22880   22882   22887
   22888   22887   22890   22893   22888   22887   22890   22892
   22888   22887   22890   22891   22889   22887   22890   22893
   22889   22887   22890   22892   22889   22887   22890   22891
   22890   22893   22895   22896   22890   22893   22895   22900
   22891   22890   22893   22895   22891   22890   22893   22894
   22892   22890   22893   22895   22892   22890   22893   22894
   22893   22895   22896   22899   22893   22895   22896   22898
   22893   22895   22896   22897   22893   22895   22900   22902
   22893   22895   22900   22901   22893   22895   22900   22903
   22894   22893   22895   22896   22894   22893   22895   22900
   22895   22900   22903   22905   22895   22900   22903   22904
   22896   22895   22900   22902   22896   22895   22900   22901
   22896   22895   22900   22903   22900   22895   22896   22897
   22900   22895   22896   22898   22900   22895   22896   22899
   22901   22900   22903   22905   22901   22900   22903   22904
   22902   22900   22903   22905   22902   22900   22903   22904
   22906   22912   22915   22918   22906   22912   22915   22917
   22906   22912   22915   22916   22907   22906   22912   22915
   22907   22906   22912   22914   22907   22906   22912   22913
   22907   22906   22908   22911   22907   22906   22908   22910
   22907   22906   22908   22909   22908   22906   22912   22915
   22908   22906   22912   22914   22908   22906   22912   22913
   22912   22906   22908   22909   22912   22906   22908   22910
   22912   22906   22908   22911   22912   22915   22918   22921
   22912   22915   22918   22920   22912   22915   22918   22919
   22913   22912   22915   22918   22913   22912   22915   22917
   22913   22912   22915   22916   22914   22912   22915   22918
   22914   22912   22915   22917   22914   22912   22915   22916
   22915   22918   22921   22927   22915   22918   22921   22923
   22915   22918   22921   22922   22916   22915   22918   22921
   22916   22915   22918   22920   22916   22915   22918   22919
   22917   22915   22918   22921   22917   22915   22918   22920
   22917   22915   22918   22919   22918   22921   22927   22930
   22918   22921   22927   22929   22918   22921   22927   22928
   22918   22921   22923   22926   22918   22921   22923   22925
   22918   22921   22923   22924   22919   22918   22921   22927
   22919   22918   22921   22923   22919   22918   22921   22922
   22920   22918   22921   22927   22920   22918   22921   22923
   22920   22918   22921   22922   22922   22921   22927   22930
   22922   22921   22927   22929   22922   22921   22927   22928
   22922   22921   22923   22926   22922   22921   22923   22925
   22922   22921   22923   22924   22923   22921   22927   22930
   22923   22921   22927   22929   22923   22921   22927   22928
   22927   22921   22923   22924   22927   22921   22923   22925
   22927   22921   22923   22926   22931   22935   22940   22946
   22931   22935   22940   22942   22931   22935   22940   22941
   22931   22935   22937   22938   22931   22935   22937   22939
   22932   22931   22935   22940   22932   22931   22935   22936
   22932   22931   22935   22937   22933   22931   22935   22940
   22933   22931   22935   22936   22933   22931   22935   22937
   22934   22931   22935   22940   22934   22931   22935   22936
   22934   22931   22935   22937   22935   22940   22946   22943
   22936   22935   22940   22946   22936   22935   22940   22942
   22936   22935   22940   22941   22936   22935   22937   22938
   22936   22935   22937   22939   22937   22935   22940   22946
   22937   22935   22940   22942   22937   22935   22940   22941
   22940   22935   22937   22938   22940   22935   22937   22939
   22945   22943   22946   22940   22944   22943   22946   22940
   22947   22943   22946   22940   22941   22940   22946   22943
   22942   22940   22946   22943   22943   22947   22948   22951
   22943   22947   22948   22950   22943   22947   22948   22949
   22944   22943   22947   22948   22945   22943   22947   22948
   22946   22943   22947   22948   22947   22948   22951   22953
   22947   22948   22951   22959   22947   22948   22951   22952
   22948   22951   22953   22954   22948   22951   22959   22962
   22948   22951   22959   22961   22948   22951   22959   22960
   22949   22948   22951   22953   22949   22948   22951   22959
   22949   22948   22951   22952   22950   22948   22951   22953
   22950   22948   22951   22959   22950   22948   22951   22952
   22951   22953   22954   22955   22951   22953   22954   22956
   22951   22959   22962   22963   22952   22951   22953   22954
   22952   22951   22959   22962   22952   22951   22959   22961
   22952   22951   22959   22960   22953   22954   22956   22968
   22953   22954   22956   22958   22953   22954   22956   22957
   22953   22951   22959   22962   22953   22951   22959   22961
   22953   22951   22959   22960   22954   22956   22968   22971
   22954   22956   22968   22970   22954   22956   22968   22969
   22959   22951   22953   22954   22955   22954   22956   22968
   22955   22954   22956   22958   22955   22954   22956   22957
   22956   22968   22971   22974   22956   22968   22971   22973
   22956   22968   22971   22972   22957   22956   22968   22971
   22957   22956   22968   22970   22957   22956   22968   22969
   22958   22956   22968   22971   22958   22956   22968   22970
   22958   22956   22968   22969   22959   22962   22963   22964
   22959   22962   22963   22965   22960   22959   22962   22963
   22961   22959   22962   22963   22962   22963   22965   23015
   22962   22963   22965   22967   22962   22963   22965   22966
   22963   22965   23015   23018   22963   22965   23015   23017
   22963   22965   23015   23016   22964   22963   22965   23015
   22964   22963   22965   22967   22964   22963   22965   22966
   22965   23015   23018   23021   22965   23015   23018   23020
   22965   23015   23018   23019   22966   22965   23015   23018
   22966   22965   23015   23017   22966   22965   23015   23016
   22967   22965   23015   23018   22967   22965   23015   23017
   22967   22965   23015   23016   22968   22971   22974   22977
   22968   22971   22974   22976   22968   22971   22974   22975
   22969   22968   22971   22974   22969   22968   22971   22973
   22969   22968   22971   22972   22970   22968   22971   22974
   22970   22968   22971   22973   22970   22968   22971   22972
   22971   22974   22977   22980   22971   22974   22977   22979
   22971   22974   22977   22978   22972   22971   22974   22977
   22972   22971   22974   22976   22972   22971   22974   22975
   22973   22971   22974   22977   22973   22971   22974   22976
   22973   22971   22974   22975   22974   22977   22980   22983
   22974   22977   22980   22982   22974   22977   22980   22981
   22975   22974   22977   22980   22975   22974   22977   22979
   22975   22974   22977   22978   22976   22974   22977   22980
   22976   22974   22977   22979   22976   22974   22977   22978
   22977   22980   22983   22986   22977   22980   22983   22985
   22977   22980   22983   22984   22978   22977   22980   22983
   22978   22977   22980   22982   22978   22977   22980   22981
   22979   22977   22980   22983   22979   22977   22980   22982
   22979   22977   22980   22981   22980   22983   22986   22988
   22980   22983   22986   22987   22981   22980   22983   22986
   22981   22980   22983   22985   22981   22980   22983   22984
   22982   22980   22983   22986   22982   22980   22983   22985
   22982   22980   22983   22984   22983   22986   22988   22990
   22983   22986   22988   22989   22984   22983   22986   22988
   22984   22983   22986   22987   22985   22983   22986   22988
   22985   22983   22986   22987   22986   22988   22990   22993
   22986   22988   22990   22992   22986   22988   22990   22991
   22987   22986   22988   22990   22987   22986   22988   22989
   22988   22990   22993   22996   22988   22990   22993   22995
   22988   22990   22993   22994   22989   22988   22990   22993
   22989   22988   22990   22992   22989   22988   22990   22991
   22990   22993   22996   22999   22990   22993   22996   22998
   22990   22993   22996   22997   22991   22990   22993   22996
   22991   22990   22993   22995   22991   22990   22993   22994
   22992   22990   22993   22996   22992   22990   22993   22995
   22992   22990   22993   22994   22993   22996   22999   23002
   22993   22996   22999   23001   22993   22996   22999   23000
   22994   22993   22996   22999   22994   22993   22996   22998
   22994   22993   22996   22997   22995   22993   22996   22999
   22995   22993   22996   22998   22995   22993   22996   22997
   22996   22999   23002   23005   22996   22999   23002   23004
   22996   22999   23002   23003   22997   22996   22999   23002
   22997   22996   22999   23001   22997   22996   22999   23000
   22998   22996   22999   23002   22998   22996   22999   23001
   22998   22996   22999   23000   22999   23002   23005   23008
   22999   23002   23005   23007   22999   23002   23005   23006
   23000   22999   23002   23005   23000   22999   23002   23004
   23000   22999   23002   23003   23001   22999   23002   23005
   23001   22999   23002   23004   23001   22999   23002   23003
   23002   23005   23008   23011   23002   23005   23008   23010
   23002   23005   23008   23009   23003   23002   23005   23008
   23003   23002   23005   23007   23003   23002   23005   23006
   23004   23002   23005   23008   23004   23002   23005   23007
   23004   23002   23005   23006   23005   23008   23011   23014
   23005   23008   23011   23013   23005   23008   23011   23012
   23006   23005   23008   23011   23006   23005   23008   23010
   23006   23005   23008   23009   23007   23005   23008   23011
   23007   23005   23008   23010   23007   23005   23008   23009
   23009   23008   23011   23014   23009   23008   23011   23013
   23009   23008   23011   23012   23010   23008   23011   23014
   23010   23008   23011   23013   23010   23008   23011   23012
   23015   23018   23021   23024   23015   23018   23021   23023
   23015   23018   23021   23022   23016   23015   23018   23021
   23016   23015   23018   23020   23016   23015   23018   23019
   23017   23015   23018   23021   23017   23015   23018   23020
   23017   23015   23018   23019   23018   23021   23024   23027
   23018   23021   23024   23026   23018   23021   23024   23025
   23019   23018   23021   23024   23019   23018   23021   23023
   23019   23018   23021   23022   23020   23018   23021   23024
   23020   23018   23021   23023   23020   23018   23021   23022
   23021   23024   23027   23030   23021   23024   23027   23029
   23021   23024   23027   23028   23022   23021   23024   23027
   23022   23021   23024   23026   23022   23021   23024   23025
   23023   23021   23024   23027   23023   23021   23024   23026
   23023   23021   23024   23025   23024   23027   23030   23033
   23024   23027   23030   23032   23024   23027   23030   23031
   23025   23024   23027   23030   23025   23024   23027   23029
   23025   23024   23027   23028   23026   23024   23027   23030
   23026   23024   23027   23029   23026   23024   23027   23028
   23027   23030   23033   23036   23027   23030   23033   23035
   23027   23030   23033   23034   23028   23027   23030   23033
   23028   23027   23030   23032   23028   23027   23030   23031
   23029   23027   23030   23033   23029   23027   23030   23032
   23029   23027   23030   23031   23030   23033   23036   23039
   23030   23033   23036   23038   23030   23033   23036   23037
   23031   23030   23033   23036   23031   23030   23033   23035
   23031   23030   23033   23034   23032   23030   23033   23036
   23032   23030   23033   23035   23032   23030   23033   23034
   23033   23036   23039   23042   23033   23036   23039   23041
   23033   23036   23039   23040   23034   23033   23036   23039
   23034   23033   23036   23038   23034   23033   23036   23037
   23035   23033   23036   23039   23035   23033   23036   23038
   23035   23033   23036   23037   23036   23039   23042   23045
   23036   23039   23042   23044   23036   23039   23042   23043
   23037   23036   23039   23042   23037   23036   23039   23041
   23037   23036   23039   23040   23038   23036   23039   23042
   23038   23036   23039   23041   23038   23036   23039   23040
   23039   23042   23045   23048   23039   23042   23045   23047
   23039   23042   23045   23046   23040   23039   23042   23045
   23040   23039   23042   23044   23040   23039   23042   23043
   23041   23039   23042   23045   23041   23039   23042   23044
   23041   23039   23042   23043   23042   23045   23048   23051
   23042   23045   23048   23050   23042   23045   23048   23049
   23043   23042   23045   23048   23043   23042   23045   23047
   23043   23042   23045   23046   23044   23042   23045   23048
   23044   23042   23045   23047   23044   23042   23045   23046
   23045   23048   23051   23054   23045   23048   23051   23053
   23045   23048   23051   23052   23046   23045   23048   23051
   23046   23045   23048   23050   23046   23045   23048   23049
   23047   23045   23048   23051   23047   23045   23048   23050
   23047   23045   23048   23049   23048   23051   23054   23057
   23048   23051   23054   23056   23048   23051   23054   23055
   23049   23048   23051   23054   23049   23048   23051   23053
   23049   23048   23051   23052   23050   23048   23051   23054
   23050   23048   23051   23053   23050   23048   23051   23052
   23052   23051   23054   23057   23052   23051   23054   23056
   23052   23051   23054   23055   23053   23051   23054   23057
   23053   23051   23054   23056   23053   23051   23054   23055
   23058   23071   23074   23076   23058   23071   23074   23075
   23058   23071   23074   23081   23059   23058   23063   23066
   23059   23058   23063   23065   23059   23058   23063   23064
   23059   23058   23067   23070   23059   23058   23067   23069
   23059   23058   23067   23068   23059   23058   23071   23073
   23059   23058   23071   23072   23059   23058   23071   23074
   23063   23058   23059   23060   23067   23058   23059   23060
   23071   23058   23059   23060   23063   23058   23059   23061
   23067   23058   23059   23061   23071   23058   23059   23061
   23063   23058   23059   23062   23067   23058   23059   23062
   23071   23058   23059   23062   23063   23058   23067   23070
   23063   23058   23067   23069   23063   23058   23067   23068
   23063   23058   23071   23073   23063   23058   23071   23072
   23063   23058   23071   23074   23067   23058   23063   23064
   23071   23058   23063   23064   23067   23058   23063   23065
   23071   23058   23063   23065   23067   23058   23063   23066
   23071   23058   23063   23066   23067   23058   23071   23073
   23067   23058   23071   23072   23067   23058   23071   23074
   23071   23058   23067   23068   23071   23058   23067   23069
   23071   23058   23067   23070   23071   23074   23081   23077
   23072   23071   23074   23076   23072   23071   23074   23075
   23072   23071   23074   23081   23073   23071   23074   23076
   23073   23071   23074   23075   23073   23071   23074   23081
   23079   23077   23081   23074   23078   23077   23081   23074
   23080   23077   23081   23074   23075   23074   23081   23077
   23076   23074   23081   23077   23077   23080   23082   23084
   23077   23080   23082   23083   23077   23080   23082   23087
   23078   23077   23080   23082   23079   23077   23080   23082
   23080   23082   23087   23085   23080   23082   23087   23088
   23080   23082   23087   23089   23081   23077   23080   23082
   23137   23085   23087   23082   23086   23085   23087   23082
   23082   23087   23089   23091   23082   23087   23089   23090
   23082   23087   23089   23093   23083   23082   23087   23085
   23083   23082   23087   23088   23083   23082   23087   23089
   23084   23082   23087   23085   23084   23082   23087   23088
   23084   23082   23087   23089   23085   23137   23139   23142
   23085   23137   23139   23141   23085   23137   23139   23140
   23085   23087   23089   23091   23085   23087   23089   23090
   23085   23087   23089   23093   23086   23085   23137   23138
   23086   23085   23137   23139   23086   23085   23087   23088
   23086   23085   23087   23089   23087   23085   23137   23138
   23087   23085   23137   23139   23087   23089   23091   23092
   23087   23089   23093   23095   23087   23089   23093   23094
   23137   23085   23087   23088   23088   23087   23089   23091
   23088   23087   23089   23090   23088   23087   23089   23093
   23137   23085   23087   23089   23089   23093   23095   23096
   23089   23093   23095   23097   23090   23089   23091   23092
   23090   23089   23093   23095   23090   23089   23093   23094
   23091   23089   23093   23095   23091   23089   23093   23094
   23093   23089   23091   23092   23093   23095   23097   23099
   23093   23095   23097   23098   23093   23095   23097   23100
   23094   23093   23095   23096   23094   23093   23095   23097
   23095   23097   23100   23102   23095   23097   23100   23101
   23095   23097   23100   23103   23096   23095   23097   23099
   23096   23095   23097   23098   23096   23095   23097   23100
   23097   23100   23103   23105   23097   23100   23103   23104
   23097   23100   23103   23106   23098   23097   23100   23102
   23098   23097   23100   23101   23098   23097   23100   23103
   23099   23097   23100   23102   23099   23097   23100   23101
   23099   23097   23100   23103   23100   23103   23106   23108
   23100   23103   23106   23107   23100   23103   23106   23109
   23101   23100   23103   23105   23101   23100   23103   23104
   23101   23100   23103   23106   23102   23100   23103   23105
   23102   23100   23103   23104   23102   23100   23103   23106
   23103   23106   23109   23111   23103   23106   23109   23110
   23103   23106   23109   23112   23104   23103   23106   23108
   23104   23103   23106   23107   23104   23103   23106   23109
   23105   23103   23106   23108   23105   23103   23106   23107
   23105   23103   23106   23109   23106   23109   23112   23114
   23106   23109   23112   23113   23106   23109   23112   23115
   23107   23106   23109   23111   23107   23106   23109   23110
   23107   23106   23109   23112   23108   23106   23109   23111
   23108   23106   23109   23110   23108   23106   23109   23112
   23109   23112   23115   23117   23109   23112   23115   23116
   23109   23112   23115   23118   23110   23109   23112   23114
   23110   23109   23112   23113   23110   23109   23112   23115
   23111   23109   23112   23114   23111   23109   23112   23113
   23111   23109   23112   23115   23112   23115   23118   23120
   23112   23115   23118   23119   23112   23115   23118   23121
   23113   23112   23115   23117   23113   23112   23115   23116
   23113   23112   23115   23118   23114   23112   23115   23117
   23114   23112   23115   23116   23114   23112   23115   23118
   23115   23118   23121   23123   23115   23118   23121   23122
   23115   23118   23121   23124   23116   23115   23118   23120
   23116   23115   23118   23119   23116   23115   23118   23121
   23117   23115   23118   23120   23117   23115   23118   23119
   23117   23115   23118   23121   23118   23121   23124   23126
   23118   23121   23124   23125   23118   23121   23124   23127
   23119   23118   23121   23123   23119   23118   23121   23122
   23119   23118   23121   23124   23120   23118   23121   23123
   23120   23118   23121   23122   23120   23118   23121   23124
   23121   23124   23127   23129   23121   23124   23127   23128
   23121   23124   23127   23130   23122   23121   23124   23126
   23122   23121   23124   23125   23122   23121   23124   23127
   23123   23121   23124   23126   23123   23121   23124   23125
   23123   23121   23124   23127   23124   23127   23130   23132
   23124   23127   23130   23131   23124   23127   23130   23133
   23125   23124   23127   23129   23125   23124   23127   23128
   23125   23124   23127   23130   23126   23124   23127   23129
   23126   23124   23127   23128   23126   23124   23127   23130
   23127   23130   23133   23136   23127   23130   23133   23135
   23127   23130   23133   23134   23128   23127   23130   23132
   23128   23127   23130   23131   23128   23127   23130   23133
   23129   23127   23130   23132   23129   23127   23130   23131
   23129   23127   23130   23133   23131   23130   23133   23136
   23131   23130   23133   23135   23131   23130   23133   23134
   23132   23130   23133   23136   23132   23130   23133   23135
   23132   23130   23133   23134   23137   23139   23142   23145
   23137   23139   23142   23144   23137   23139   23142   23143
   23138   23137   23139   23142   23138   23137   23139   23141
   23138   23137   23139   23140   23139   23142   23145   23148
   23139   23142   23145   23147   23139   23142   23145   23146
   23140   23139   23142   23145   23140   23139   23142   23144
   23140   23139   23142   23143   23141   23139   23142   23145
   23141   23139   23142   23144   23141   23139   23142   23143
   23142   23145   23148   23151   23142   23145   23148   23150
   23142   23145   23148   23149   23143   23142   23145   23148
   23143   23142   23145   23147   23143   23142   23145   23146
   23144   23142   23145   23148   23144   23142   23145   23147
   23144   23142   23145   23146   23145   23148   23151   23154
   23145   23148   23151   23153   23145   23148   23151   23152
   23146   23145   23148   23151   23146   23145   23148   23150
   23146   23145   23148   23149   23147   23145   23148   23151
   23147   23145   23148   23150   23147   23145   23148   23149
   23148   23151   23154   23157   23148   23151   23154   23156
   23148   23151   23154   23155   23149   23148   23151   23154
   23149   23148   23151   23153   23149   23148   23151   23152
   23150   23148   23151   23154   23150   23148   23151   23153
   23150   23148   23151   23152   23151   23154   23157   23160
   23151   23154   23157   23159   23151   23154   23157   23158
   23152   23151   23154   23157   23152   23151   23154   23156
   23152   23151   23154   23155   23153   23151   23154   23157
   23153   23151   23154   23156   23153   23151   23154   23155
   23154   23157   23160   23163   23154   23157   23160   23162
   23154   23157   23160   23161   23155   23154   23157   23160
   23155   23154   23157   23159   23155   23154   23157   23158
   23156   23154   23157   23160   23156   23154   23157   23159
   23156   23154   23157   23158   23157   23160   23163   23166
   23157   23160   23163   23165   23157   23160   23163   23164
   23158   23157   23160   23163   23158   23157   23160   23162
   23158   23157   23160   23161   23159   23157   23160   23163
   23159   23157   23160   23162   23159   23157   23160   23161
   23160   23163   23166   23169   23160   23163   23166   23168
   23160   23163   23166   23167   23161   23160   23163   23166
   23161   23160   23163   23165   23161   23160   23163   23164
   23162   23160   23163   23166   23162   23160   23163   23165
   23162   23160   23163   23164   23163   23166   23169   23172
   23163   23166   23169   23171   23163   23166   23169   23170
   23164   23163   23166   23169   23164   23163   23166   23168
   23164   23163   23166   23167   23165   23163   23166   23169
   23165   23163   23166   23168   23165   23163   23166   23167
   23166   23169   23172   23175   23166   23169   23172   23174
   23166   23169   23172   23173   23167   23166   23169   23172
   23167   23166   23169   23171   23167   23166   23169   23170
   23168   23166   23169   23172   23168   23166   23169   23171
   23168   23166   23169   23170   23169   23172   23175   23178
   23169   23172   23175   23177   23169   23172   23175   23176
   23170   23169   23172   23175   23170   23169   23172   23174
   23170   23169   23172   23173   23171   23169   23172   23175
   23171   23169   23172   23174   23171   23169   23172   23173
   23172   23175   23178   23181   23172   23175   23178   23180
   23172   23175   23178   23179   23173   23172   23175   23178
   23173   23172   23175   23177   23173   23172   23175   23176
   23174   23172   23175   23178   23174   23172   23175   23177
   23174   23172   23175   23176   23175   23178   23181   23184
   23175   23178   23181   23183   23175   23178   23181   23182
   23176   23175   23178   23181   23176   23175   23178   23180
   23176   23175   23178   23179   23177   23175   23178   23181
   23177   23175   23178   23180   23177   23175   23178   23179
   23179   23178   23181   23184   23179   23178   23181   23183
   23179   23178   23181   23182   23180   23178   23181   23184
   23180   23178   23181   23183   23180   23178   23181   23182
   23185   23189   23194   23200   23185   23189   23194   23196
   23185   23189   23194   23195   23185   23189   23191   23192
   23185   23189   23191   23193   23186   23185   23189   23194
   23186   23185   23189   23190   23186   23185   23189   23191
   23187   23185   23189   23194   23187   23185   23189   23190
   23187   23185   23189   23191   23188   23185   23189   23194
   23188   23185   23189   23190   23188   23185   23189   23191
   23189   23194   23200   23197   23190   23189   23194   23200
   23190   23189   23194   23196   23190   23189   23194   23195
   23190   23189   23191   23192   23190   23189   23191   23193
   23191   23189   23194   23200   23191   23189   23194   23196
   23191   23189   23194   23195   23194   23189   23191   23192
   23194   23189   23191   23193   23199   23197   23200   23194
   23198   23197   23200   23194   23201   23197   23200   23194
   23195   23194   23200   23197   23196   23194   23200   23197
   23197   23201   23202   23205   23197   23201   23202   23204
   23197   23201   23202   23203   23198   23197   23201   23202
   23199   23197   23201   23202   23200   23197   23201   23202
   23201   23202   23205   23207   23201   23202   23205   23213
   23201   23202   23205   23206   23202   23205   23207   23208
   23202   23205   23213   23216   23202   23205   23213   23215
   23202   23205   23213   23214   23203   23202   23205   23207
   23203   23202   23205   23213   23203   23202   23205   23206
   23204   23202   23205   23207   23204   23202   23205   23213
   23204   23202   23205   23206   23205   23207   23208   23209
   23205   23207   23208   23210   23205   23213   23216   23217
   23206   23205   23207   23208   23206   23205   23213   23216
   23206   23205   23213   23215   23206   23205   23213   23214
   23207   23208   23210   23222   23207   23208   23210   23212
   23207   23208   23210   23211   23207   23205   23213   23216
   23207   23205   23213   23215   23207   23205   23213   23214
   23208   23210   23222   23225   23208   23210   23222   23224
   23208   23210   23222   23223   23213   23205   23207   23208
   23209   23208   23210   23222   23209   23208   23210   23212
   23209   23208   23210   23211   23210   23222   23225   23228
   23210   23222   23225   23227   23210   23222   23225   23226
   23211   23210   23222   23225   23211   23210   23222   23224
   23211   23210   23222   23223   23212   23210   23222   23225
   23212   23210   23222   23224   23212   23210   23222   23223
   23213   23216   23217   23218   23213   23216   23217   23219
   23214   23213   23216   23217   23215   23213   23216   23217
   23216   23217   23219   23269   23216   23217   23219   23221
   23216   23217   23219   23220   23217   23219   23269   23272
   23217   23219   23269   23271   23217   23219   23269   23270
   23218   23217   23219   23269   23218   23217   23219   23221
   23218   23217   23219   23220   23219   23269   23272   23275
   23219   23269   23272   23274   23219   23269   23272   23273
   23220   23219   23269   23272   23220   23219   23269   23271
   23220   23219   23269   23270   23221   23219   23269   23272
   23221   23219   23269   23271   23221   23219   23269   23270
   23222   23225   23228   23231   23222   23225   23228   23230
   23222   23225   23228   23229   23223   23222   23225   23228
   23223   23222   23225   23227   23223   23222   23225   23226
   23224   23222   23225   23228   23224   23222   23225   23227
   23224   23222   23225   23226   23225   23228   23231   23234
   23225   23228   23231   23233   23225   23228   23231   23232
   23226   23225   23228   23231   23226   23225   23228   23230
   23226   23225   23228   23229   23227   23225   23228   23231
   23227   23225   23228   23230   23227   23225   23228   23229
   23228   23231   23234   23237   23228   23231   23234   23236
   23228   23231   23234   23235   23229   23228   23231   23234
   23229   23228   23231   23233   23229   23228   23231   23232
   23230   23228   23231   23234   23230   23228   23231   23233
   23230   23228   23231   23232   23231   23234   23237   23240
   23231   23234   23237   23239   23231   23234   23237   23238
   23232   23231   23234   23237   23232   23231   23234   23236
   23232   23231   23234   23235   23233   23231   23234   23237
   23233   23231   23234   23236   23233   23231   23234   23235
   23234   23237   23240   23242   23234   23237   23240   23241
   23235   23234   23237   23240   23235   23234   23237   23239
   23235   23234   23237   23238   23236   23234   23237   23240
   23236   23234   23237   23239   23236   23234   23237   23238
   23237   23240   23242   23244   23237   23240   23242   23243
   23238   23237   23240   23242   23238   23237   23240   23241
   23239   23237   23240   23242   23239   23237   23240   23241
   23240   23242   23244   23247   23240   23242   23244   23246
   23240   23242   23244   23245   23241   23240   23242   23244
   23241   23240   23242   23243   23242   23244   23247   23250
   23242   23244   23247   23249   23242   23244   23247   23248
   23243   23242   23244   23247   23243   23242   23244   23246
   23243   23242   23244   23245   23244   23247   23250   23253
   23244   23247   23250   23252   23244   23247   23250   23251
   23245   23244   23247   23250   23245   23244   23247   23249
   23245   23244   23247   23248   23246   23244   23247   23250
   23246   23244   23247   23249   23246   23244   23247   23248
   23247   23250   23253   23256   23247   23250   23253   23255
   23247   23250   23253   23254   23248   23247   23250   23253
   23248   23247   23250   23252   23248   23247   23250   23251
   23249   23247   23250   23253   23249   23247   23250   23252
   23249   23247   23250   23251   23250   23253   23256   23259
   23250   23253   23256   23258   23250   23253   23256   23257
   23251   23250   23253   23256   23251   23250   23253   23255
   23251   23250   23253   23254   23252   23250   23253   23256
   23252   23250   23253   23255   23252   23250   23253   23254
   23253   23256   23259   23262   23253   23256   23259   23261
   23253   23256   23259   23260   23254   23253   23256   23259
   23254   23253   23256   23258   23254   23253   23256   23257
   23255   23253   23256   23259   23255   23253   23256   23258
   23255   23253   23256   23257   23256   23259   23262   23265
   23256   23259   23262   23264   23256   23259   23262   23263
   23257   23256   23259   23262   23257   23256   23259   23261
   23257   23256   23259   23260   23258   23256   23259   23262
   23258   23256   23259   23261   23258   23256   23259   23260
   23259   23262   23265   23268   23259   23262   23265   23267
   23259   23262   23265   23266   23260   23259   23262   23265
   23260   23259   23262   23264   23260   23259   23262   23263
   23261   23259   23262   23265   23261   23259   23262   23264
   23261   23259   23262   23263   23263   23262   23265   23268
   23263   23262   23265   23267   23263   23262   23265   23266
   23264   23262   23265   23268   23264   23262   23265   23267
   23264   23262   23265   23266   23269   23272   23275   23278
   23269   23272   23275   23277   23269   23272   23275   23276
   23270   23269   23272   23275   23270   23269   23272   23274
   23270   23269   23272   23273   23271   23269   23272   23275
   23271   23269   23272   23274   23271   23269   23272   23273
   23272   23275   23278   23281   23272   23275   23278   23280
   23272   23275   23278   23279   23273   23272   23275   23278
   23273   23272   23275   23277   23273   23272   23275   23276
   23274   23272   23275   23278   23274   23272   23275   23277
   23274   23272   23275   23276   23275   23278   23281   23284
   23275   23278   23281   23283   23275   23278   23281   23282
   23276   23275   23278   23281   23276   23275   23278   23280
   23276   23275   23278   23279   23277   23275   23278   23281
   23277   23275   23278   23280   23277   23275   23278   23279
   23278   23281   23284   23287   23278   23281   23284   23286
   23278   23281   23284   23285   23279   23278   23281   23284
   23279   23278   23281   23283   23279   23278   23281   23282
   23280   23278   23281   23284   23280   23278   23281   23283
   23280   23278   23281   23282   23281   23284   23287   23290
   23281   23284   23287   23289   23281   23284   23287   23288
   23282   23281   23284   23287   23282   23281   23284   23286
   23282   23281   23284   23285   23283   23281   23284   23287
   23283   23281   23284   23286   23283   23281   23284   23285
   23284   23287   23290   23293   23284   23287   23290   23292
   23284   23287   23290   23291   23285   23284   23287   23290
   23285   23284   23287   23289   23285   23284   23287   23288
   23286   23284   23287   23290   23286   23284   23287   23289
   23286   23284   23287   23288   23287   23290   23293   23296
   23287   23290   23293   23295   23287   23290   23293   23294
   23288   23287   23290   23293   23288   23287   23290   23292
   23288   23287   23290   23291   23289   23287   23290   23293
   23289   23287   23290   23292   23289   23287   23290   23291
   23290   23293   23296   23299   23290   23293   23296   23298
   23290   23293   23296   23297   23291   23290   23293   23296
   23291   23290   23293   23295   23291   23290   23293   23294
   23292   23290   23293   23296   23292   23290   23293   23295
   23292   23290   23293   23294   23293   23296   23299   23302
   23293   23296   23299   23301   23293   23296   23299   23300
   23294   23293   23296   23299   23294   23293   23296   23298
   23294   23293   23296   23297   23295   23293   23296   23299
   23295   23293   23296   23298   23295   23293   23296   23297
   23296   23299   23302   23305   23296   23299   23302   23304
   23296   23299   23302   23303   23297   23296   23299   23302
   23297   23296   23299   23301   23297   23296   23299   23300
   23298   23296   23299   23302   23298   23296   23299   23301
   23298   23296   23299   23300   23299   23302   23305   23308
   23299   23302   23305   23307   23299   23302   23305   23306
   23300   23299   23302   23305   23300   23299   23302   23304
   23300   23299   23302   23303   23301   23299   23302   23305
   23301   23299   23302   23304   23301   23299   23302   23303
   23302   23305   23308   23311   23302   23305   23308   23310
   23302   23305   23308   23309   23303   23302   23305   23308
   23303   23302   23305   23307   23303   23302   23305   23306
   23304   23302   23305   23308   23304   23302   23305   23307
   23304   23302   23305   23306   23306   23305   23308   23311
   23306   23305   23308   23310   23306   23305   23308   23309
   23307   23305   23308   23311   23307   23305   23308   23310
   23307   23305   23308   23309   23312   23316   23321   23327
   23312   23316   23321   23323   23312   23316   23321   23322
   23312   23316   23318   23319   23312   23316   23318   23320
   23313   23312   23316   23321   23313   23312   23316   23317
   23313   23312   23316   23318   23314   23312   23316   23321
   23314   23312   23316   23317   23314   23312   23316   23318
   23315   23312   23316   23321   23315   23312   23316   23317
   23315   23312   23316   23318   23316   23321   23327   23324
   23317   23316   23321   23327   23317   23316   23321   23323
   23317   23316   23321   23322   23317   23316   23318   23319
   23317   23316   23318   23320   23318   23316   23321   23327
   23318   23316   23321   23323   23318   23316   23321   23322
   23321   23316   23318   23319   23321   23316   23318   23320
   23326   23324   23327   23321   23325   23324   23327   23321
   23328   23324   23327   23321   23322   23321   23327   23324
   23323   23321   23327   23324   23324   23328   23329   23332
   23324   23328   23329   23331   23324   23328   23329   23330
   23325   23324   23328   23329   23326   23324   23328   23329
   23327   23324   23328   23329   23328   23329   23332   23334
   23328   23329   23332   23340   23328   23329   23332   23333
   23329   23332   23334   23335   23329   23332   23340   23343
   23329   23332   23340   23342   23329   23332   23340   23341
   23330   23329   23332   23334   23330   23329   23332   23340
   23330   23329   23332   23333   23331   23329   23332   23334
   23331   23329   23332   23340   23331   23329   23332   23333
   23332   23334   23335   23336   23332   23334   23335   23337
   23332   23340   23343   23344   23333   23332   23334   23335
   23333   23332   23340   23343   23333   23332   23340   23342
   23333   23332   23340   23341   23334   23335   23337   23349
   23334   23335   23337   23339   23334   23335   23337   23338
   23334   23332   23340   23343   23334   23332   23340   23342
   23334   23332   23340   23341   23335   23337   23349   23352
   23335   23337   23349   23351   23335   23337   23349   23350
   23340   23332   23334   23335   23336   23335   23337   23349
   23336   23335   23337   23339   23336   23335   23337   23338
   23337   23349   23352   23355   23337   23349   23352   23354
   23337   23349   23352   23353   23338   23337   23349   23352
   23338   23337   23349   23351   23338   23337   23349   23350
   23339   23337   23349   23352   23339   23337   23349   23351
   23339   23337   23349   23350   23340   23343   23344   23345
   23340   23343   23344   23346   23341   23340   23343   23344
   23342   23340   23343   23344   23343   23344   23346   23396
   23343   23344   23346   23348   23343   23344   23346   23347
   23344   23346   23396   23399   23344   23346   23396   23398
   23344   23346   23396   23397   23345   23344   23346   23396
   23345   23344   23346   23348   23345   23344   23346   23347
   23346   23396   23399   23402   23346   23396   23399   23401
   23346   23396   23399   23400   23347   23346   23396   23399
   23347   23346   23396   23398   23347   23346   23396   23397
   23348   23346   23396   23399   23348   23346   23396   23398
   23348   23346   23396   23397   23349   23352   23355   23358
   23349   23352   23355   23357   23349   23352   23355   23356
   23350   23349   23352   23355   23350   23349   23352   23354
   23350   23349   23352   23353   23351   23349   23352   23355
   23351   23349   23352   23354   23351   23349   23352   23353
   23352   23355   23358   23361   23352   23355   23358   23360
   23352   23355   23358   23359   23353   23352   23355   23358
   23353   23352   23355   23357   23353   23352   23355   23356
   23354   23352   23355   23358   23354   23352   23355   23357
   23354   23352   23355   23356   23355   23358   23361   23364
   23355   23358   23361   23363   23355   23358   23361   23362
   23356   23355   23358   23361   23356   23355   23358   23360
   23356   23355   23358   23359   23357   23355   23358   23361
   23357   23355   23358   23360   23357   23355   23358   23359
   23358   23361   23364   23367   23358   23361   23364   23366
   23358   23361   23364   23365   23359   23358   23361   23364
   23359   23358   23361   23363   23359   23358   23361   23362
   23360   23358   23361   23364   23360   23358   23361   23363
   23360   23358   23361   23362   23361   23364   23367   23369
   23361   23364   23367   23368   23362   23361   23364   23367
   23362   23361   23364   23366   23362   23361   23364   23365
   23363   23361   23364   23367   23363   23361   23364   23366
   23363   23361   23364   23365   23364   23367   23369   23371
   23364   23367   23369   23370   23365   23364   23367   23369
   23365   23364   23367   23368   23366   23364   23367   23369
   23366   23364   23367   23368   23367   23369   23371   23374
   23367   23369   23371   23373   23367   23369   23371   23372
   23368   23367   23369   23371   23368   23367   23369   23370
   23369   23371   23374   23377   23369   23371   23374   23376
   23369   23371   23374   23375   23370   23369   23371   23374
   23370   23369   23371   23373   23370   23369   23371   23372
   23371   23374   23377   23380   23371   23374   23377   23379
   23371   23374   23377   23378   23372   23371   23374   23377
   23372   23371   23374   23376   23372   23371   23374   23375
   23373   23371   23374   23377   23373   23371   23374   23376
   23373   23371   23374   23375   23374   23377   23380   23383
   23374   23377   23380   23382   23374   23377   23380   23381
   23375   23374   23377   23380   23375   23374   23377   23379
   23375   23374   23377   23378   23376   23374   23377   23380
   23376   23374   23377   23379   23376   23374   23377   23378
   23377   23380   23383   23386   23377   23380   23383   23385
   23377   23380   23383   23384   23378   23377   23380   23383
   23378   23377   23380   23382   23378   23377   23380   23381
   23379   23377   23380   23383   23379   23377   23380   23382
   23379   23377   23380   23381   23380   23383   23386   23389
   23380   23383   23386   23388   23380   23383   23386   23387
   23381   23380   23383   23386   23381   23380   23383   23385
   23381   23380   23383   23384   23382   23380   23383   23386
   23382   23380   23383   23385   23382   23380   23383   23384
   23383   23386   23389   23392   23383   23386   23389   23391
   23383   23386   23389   23390   23384   23383   23386   23389
   23384   23383   23386   23388   23384   23383   23386   23387
   23385   23383   23386   23389   23385   23383   23386   23388
   23385   23383   23386   23387   23386   23389   23392   23395
   23386   23389   23392   23394   23386   23389   23392   23393
   23387   23386   23389   23392   23387   23386   23389   23391
   23387   23386   23389   23390   23388   23386   23389   23392
   23388   23386   23389   23391   23388   23386   23389   23390
   23390   23389   23392   23395   23390   23389   23392   23394
   23390   23389   23392   23393   23391   23389   23392   23395
   23391   23389   23392   23394   23391   23389   23392   23393
   23396   23399   23402   23405   23396   23399   23402   23404
   23396   23399   23402   23403   23397   23396   23399   23402
   23397   23396   23399   23401   23397   23396   23399   23400
   23398   23396   23399   23402   23398   23396   23399   23401
   23398   23396   23399   23400   23399   23402   23405   23408
   23399   23402   23405   23407   23399   23402   23405   23406
   23400   23399   23402   23405   23400   23399   23402   23404
   23400   23399   23402   23403   23401   23399   23402   23405
   23401   23399   23402   23404   23401   23399   23402   23403
   23402   23405   23408   23411   23402   23405   23408   23410
   23402   23405   23408   23409   23403   23402   23405   23408
   23403   23402   23405   23407   23403   23402   23405   23406
   23404   23402   23405   23408   23404   23402   23405   23407
   23404   23402   23405   23406   23405   23408   23411   23414
   23405   23408   23411   23413   23405   23408   23411   23412
   23406   23405   23408   23411   23406   23405   23408   23410
   23406   23405   23408   23409   23407   23405   23408   23411
   23407   23405   23408   23410   23407   23405   23408   23409
   23408   23411   23414   23417   23408   23411   23414   23416
   23408   23411   23414   23415   23409   23408   23411   23414
   23409   23408   23411   23413   23409   23408   23411   23412
   23410   23408   23411   23414   23410   23408   23411   23413
   23410   23408   23411   23412   23411   23414   23417   23420
   23411   23414   23417   23419   23411   23414   23417   23418
   23412   23411   23414   23417   23412   23411   23414   23416
   23412   23411   23414   23415   23413   23411   23414   23417
   23413   23411   23414   23416   23413   23411   23414   23415
   23414   23417   23420   23423   23414   23417   23420   23422
   23414   23417   23420   23421   23415   23414   23417   23420
   23415   23414   23417   23419   23415   23414   23417   23418
   23416   23414   23417   23420   23416   23414   23417   23419
   23416   23414   23417   23418   23417   23420   23423   23426
   23417   23420   23423   23425   23417   23420   23423   23424
   23418   23417   23420   23423   23418   23417   23420   23422
   23418   23417   23420   23421   23419   23417   23420   23423
   23419   23417   23420   23422   23419   23417   23420   23421
   23420   23423   23426   23429   23420   23423   23426   23428
   23420   23423   23426   23427   23421   23420   23423   23426
   23421   23420   23423   23425   23421   23420   23423   23424
   23422   23420   23423   23426   23422   23420   23423   23425
   23422   23420   23423   23424   23423   23426   23429   23432
   23423   23426   23429   23431   23423   23426   23429   23430
   23424   23423   23426   23429   23424   23423   23426   23428
   23424   23423   23426   23427   23425   23423   23426   23429
   23425   23423   23426   23428   23425   23423   23426   23427
   23426   23429   23432   23435   23426   23429   23432   23434
   23426   23429   23432   23433   23427   23426   23429   23432
   23427   23426   23429   23431   23427   23426   23429   23430
   23428   23426   23429   23432   23428   23426   23429   23431
   23428   23426   23429   23430   23429   23432   23435   23438
   23429   23432   23435   23437   23429   23432   23435   23436
   23430   23429   23432   23435   23430   23429   23432   23434
   23430   23429   23432   23433   23431   23429   23432   23435
   23431   23429   23432   23434   23431   23429   23432   23433
   23433   23432   23435   23438   23433   23432   23435   23437
   23433   23432   23435   23436   23434   23432   23435   23438
   23434   23432   23435   23437   23434   23432   23435   23436
   23439   23440   23455   23461   23439   23440   23455   23457
   23439   23440   23455   23456   23440   23455   23461   23458
   23440   23439   23451   23454   23440   23439   23451   23453
   23440   23439   23451   23452   23440   23439   23447   23450
   23440   23439   23447   23449   23440   23439   23447   23448
   23440   23439   23443   23446   23440   23439   23443   23445
   23440   23439   23443   23444   23441   23440   23455   23461
   23441   23440   23455   23457   23441   23440   23455   23456
   23451   23439   23440   23441   23447   23439   23440   23441
   23443   23439   23440   23441   23442   23440   23455   23461
   23442   23440   23455   23457   23442   23440   23455   23456
   23451   23439   23440   23442   23447   23439   23440   23442
   23443   23439   23440   23442   23443   23439   23440   23455
   23443   23439   23451   23454   23443   23439   23451   23453
   23443   23439   23451   23452   23443   23439   23447   23450
   23443   23439   23447   23449   23443   23439   23447   23448
   23451   23439   23443   23444   23447   23439   23443   23444
   23451   23439   23443   23445   23447   23439   23443   23445
   23451   23439   23443   23446   23447   23439   23443   23446
   23447   23439   23440   23455   23447   23439   23451   23454
   23447   23439   23451   23453   23447   23439   23451   23452
   23451   23439   23447   23448   23451   23439   23447   23449
   23451   23439   23447   23450   23451   23439   23440   23455
   23460   23458   23461   23455   23459   23458   23461   23455
   23462   23458   23461   23455   23456   23455   23461   23458
   23457   23455   23461   23458   23458   23462   23463   23466
   23458   23462   23463   23465   23458   23462   23463   23464
   23459   23458   23462   23463   23460   23458   23462   23463
   23461   23458   23462   23463   23462   23463   23466   23468
   23462   23463   23466   23474   23462   23463   23466   23467
   23463   23466   23468   23469   23463   23466   23474   23477
   23463   23466   23474   23476   23463   23466   23474   23475
   23464   23463   23466   23468   23464   23463   23466   23474
   23464   23463   23466   23467   23465   23463   23466   23468
   23465   23463   23466   23474   23465   23463   23466   23467
   23466   23468   23469   23470   23466   23468   23469   23471
   23466   23474   23477   23478   23467   23466   23468   23469
   23467   23466   23474   23477   23467   23466   23474   23476
   23467   23466   23474   23475   23468   23469   23471   23483
   23468   23469   23471   23473   23468   23469   23471   23472
   23468   23466   23474   23477   23468   23466   23474   23476
   23468   23466   23474   23475   23469   23471   23483   23486
   23469   23471   23483   23485   23469   23471   23483   23484
   23474   23466   23468   23469   23470   23469   23471   23483
   23470   23469   23471   23473   23470   23469   23471   23472
   23471   23483   23486   23489   23471   23483   23486   23488
   23471   23483   23486   23487   23472   23471   23483   23486
   23472   23471   23483   23485   23472   23471   23483   23484
   23473   23471   23483   23486   23473   23471   23483   23485
   23473   23471   23483   23484   23474   23477   23478   23479
   23474   23477   23478   23480   23475   23474   23477   23478
   23476   23474   23477   23478   23477   23478   23480   23530
   23477   23478   23480   23482   23477   23478   23480   23481
   23478   23480   23530   23533   23478   23480   23530   23532
   23478   23480   23530   23531   23479   23478   23480   23530
   23479   23478   23480   23482   23479   23478   23480   23481
   23480   23530   23533   23536   23480   23530   23533   23535
   23480   23530   23533   23534   23481   23480   23530   23533
   23481   23480   23530   23532   23481   23480   23530   23531
   23482   23480   23530   23533   23482   23480   23530   23532
   23482   23480   23530   23531   23483   23486   23489   23492
   23483   23486   23489   23491   23483   23486   23489   23490
   23484   23483   23486   23489   23484   23483   23486   23488
   23484   23483   23486   23487   23485   23483   23486   23489
   23485   23483   23486   23488   23485   23483   23486   23487
   23486   23489   23492   23495   23486   23489   23492   23494
   23486   23489   23492   23493   23487   23486   23489   23492
   23487   23486   23489   23491   23487   23486   23489   23490
   23488   23486   23489   23492   23488   23486   23489   23491
   23488   23486   23489   23490   23489   23492   23495   23498
   23489   23492   23495   23497   23489   23492   23495   23496
   23490   23489   23492   23495   23490   23489   23492   23494
   23490   23489   23492   23493   23491   23489   23492   23495
   23491   23489   23492   23494   23491   23489   23492   23493
   23492   23495   23498   23501   23492   23495   23498   23500
   23492   23495   23498   23499   23493   23492   23495   23498
   23493   23492   23495   23497   23493   23492   23495   23496
   23494   23492   23495   23498   23494   23492   23495   23497
   23494   23492   23495   23496   23495   23498   23501   23503
   23495   23498   23501   23502   23496   23495   23498   23501
   23496   23495   23498   23500   23496   23495   23498   23499
   23497   23495   23498   23501   23497   23495   23498   23500
   23497   23495   23498   23499   23498   23501   23503   23505
   23498   23501   23503   23504   23499   23498   23501   23503
   23499   23498   23501   23502   23500   23498   23501   23503
   23500   23498   23501   23502   23501   23503   23505   23508
   23501   23503   23505   23507   23501   23503   23505   23506
   23502   23501   23503   23505   23502   23501   23503   23504
   23503   23505   23508   23511   23503   23505   23508   23510
   23503   23505   23508   23509   23504   23503   23505   23508
   23504   23503   23505   23507   23504   23503   23505   23506
   23505   23508   23511   23514   23505   23508   23511   23513
   23505   23508   23511   23512   23506   23505   23508   23511
   23506   23505   23508   23510   23506   23505   23508   23509
   23507   23505   23508   23511   23507   23505   23508   23510
   23507   23505   23508   23509   23508   23511   23514   23517
   23508   23511   23514   23516   23508   23511   23514   23515
   23509   23508   23511   23514   23509   23508   23511   23513
   23509   23508   23511   23512   23510   23508   23511   23514
   23510   23508   23511   23513   23510   23508   23511   23512
   23511   23514   23517   23520   23511   23514   23517   23519
   23511   23514   23517   23518   23512   23511   23514   23517
   23512   23511   23514   23516   23512   23511   23514   23515
   23513   23511   23514   23517   23513   23511   23514   23516
   23513   23511   23514   23515   23514   23517   23520   23523
   23514   23517   23520   23522   23514   23517   23520   23521
   23515   23514   23517   23520   23515   23514   23517   23519
   23515   23514   23517   23518   23516   23514   23517   23520
   23516   23514   23517   23519   23516   23514   23517   23518
   23517   23520   23523   23526   23517   23520   23523   23525
   23517   23520   23523   23524   23518   23517   23520   23523
   23518   23517   23520   23522   23518   23517   23520   23521
   23519   23517   23520   23523   23519   23517   23520   23522
   23519   23517   23520   23521   23520   23523   23526   23529
   23520   23523   23526   23528   23520   23523   23526   23527
   23521   23520   23523   23526   23521   23520   23523   23525
   23521   23520   23523   23524   23522   23520   23523   23526
   23522   23520   23523   23525   23522   23520   23523   23524
   23524   23523   23526   23529   23524   23523   23526   23528
   23524   23523   23526   23527   23525   23523   23526   23529
   23525   23523   23526   23528   23525   23523   23526   23527
   23530   23533   23536   23539   23530   23533   23536   23538
   23530   23533   23536   23537   23531   23530   23533   23536
   23531   23530   23533   23535   23531   23530   23533   23534
   23532   23530   23533   23536   23532   23530   23533   23535
   23532   23530   23533   23534   23533   23536   23539   23542
   23533   23536   23539   23541   23533   23536   23539   23540
   23534   23533   23536   23539   23534   23533   23536   23538
   23534   23533   23536   23537   23535   23533   23536   23539
   23535   23533   23536   23538   23535   23533   23536   23537
   23536   23539   23542   23545   23536   23539   23542   23544
   23536   23539   23542   23543   23537   23536   23539   23542
   23537   23536   23539   23541   23537   23536   23539   23540
   23538   23536   23539   23542   23538   23536   23539   23541
   23538   23536   23539   23540   23539   23542   23545   23548
   23539   23542   23545   23547   23539   23542   23545   23546
   23540   23539   23542   23545   23540   23539   23542   23544
   23540   23539   23542   23543   23541   23539   23542   23545
   23541   23539   23542   23544   23541   23539   23542   23543
   23542   23545   23548   23551   23542   23545   23548   23550
   23542   23545   23548   23549   23543   23542   23545   23548
   23543   23542   23545   23547   23543   23542   23545   23546
   23544   23542   23545   23548   23544   23542   23545   23547
   23544   23542   23545   23546   23545   23548   23551   23554
   23545   23548   23551   23553   23545   23548   23551   23552
   23546   23545   23548   23551   23546   23545   23548   23550
   23546   23545   23548   23549   23547   23545   23548   23551
   23547   23545   23548   23550   23547   23545   23548   23549
   23548   23551   23554   23557   23548   23551   23554   23556
   23548   23551   23554   23555   23549   23548   23551   23554
   23549   23548   23551   23553   23549   23548   23551   23552
   23550   23548   23551   23554   23550   23548   23551   23553
   23550   23548   23551   23552   23551   23554   23557   23560
   23551   23554   23557   23559   23551   23554   23557   23558
   23552   23551   23554   23557   23552   23551   23554   23556
   23552   23551   23554   23555   23553   23551   23554   23557
   23553   23551   23554   23556   23553   23551   23554   23555
   23554   23557   23560   23563   23554   23557   23560   23562
   23554   23557   23560   23561   23555   23554   23557   23560
   23555   23554   23557   23559   23555   23554   23557   23558
   23556   23554   23557   23560   23556   23554   23557   23559
   23556   23554   23557   23558   23557   23560   23563   23566
   23557   23560   23563   23565   23557   23560   23563   23564
   23558   23557   23560   23563   23558   23557   23560   23562
   23558   23557   23560   23561   23559   23557   23560   23563
   23559   23557   23560   23562   23559   23557   23560   23561
   23560   23563   23566   23569   23560   23563   23566   23568
   23560   23563   23566   23567   23561   23560   23563   23566
   23561   23560   23563   23565   23561   23560   23563   23564
   23562   23560   23563   23566   23562   23560   23563   23565
   23562   23560   23563   23564   23563   23566   23569   23572
   23563   23566   23569   23571   23563   23566   23569   23570
   23564   23563   23566   23569   23564   23563   23566   23568
   23564   23563   23566   23567   23565   23563   23566   23569
   23565   23563   23566   23568   23565   23563   23566   23567
   23567   23566   23569   23572   23567   23566   23569   23571
   23567   23566   23569   23570   23568   23566   23569   23572
   23568   23566   23569   23571   23568   23566   23569   23570
   23573   23586   23589   23591   23573   23586   23589   23590
   23573   23586   23589   23596   23574   23573   23578   23581
   23574   23573   23578   23580   23574   23573   23578   23579
   23574   23573   23582   23585   23574   23573   23582   23584
   23574   23573   23582   23583   23574   23573   23586   23588
   23574   23573   23586   23587   23574   23573   23586   23589
   23578   23573   23574   23575   23582   23573   23574   23575
   23586   23573   23574   23575   23578   23573   23574   23576
   23582   23573   23574   23576   23586   23573   23574   23576
   23578   23573   23574   23577   23582   23573   23574   23577
   23586   23573   23574   23577   23578   23573   23582   23585
   23578   23573   23582   23584   23578   23573   23582   23583
   23578   23573   23586   23588   23578   23573   23586   23587
   23578   23573   23586   23589   23582   23573   23578   23579
   23586   23573   23578   23579   23582   23573   23578   23580
   23586   23573   23578   23580   23582   23573   23578   23581
   23586   23573   23578   23581   23582   23573   23586   23588
   23582   23573   23586   23587   23582   23573   23586   23589
   23586   23573   23582   23583   23586   23573   23582   23584
   23586   23573   23582   23585   23586   23589   23596   23592
   23587   23586   23589   23591   23587   23586   23589   23590
   23587   23586   23589   23596   23588   23586   23589   23591
   23588   23586   23589   23590   23588   23586   23589   23596
   23594   23592   23596   23589   23593   23592   23596   23589
   23595   23592   23596   23589   23590   23589   23596   23592
   23591   23589   23596   23592   23592   23595   23597   23599
   23592   23595   23597   23598   23592   23595   23597   23602
   23593   23592   23595   23597   23594   23592   23595   23597
   23595   23597   23602   23600   23595   23597   23602   23603
   23595   23597   23602   23604   23596   23592   23595   23597
   23652   23600   23602   23597   23601   23600   23602   23597
   23597   23602   23604   23606   23597   23602   23604   23605
   23597   23602   23604   23608   23598   23597   23602   23600
   23598   23597   23602   23603   23598   23597   23602   23604
   23599   23597   23602   23600   23599   23597   23602   23603
   23599   23597   23602   23604   23600   23652   23654   23657
   23600   23652   23654   23656   23600   23652   23654   23655
   23600   23602   23604   23606   23600   23602   23604   23605
   23600   23602   23604   23608   23601   23600   23652   23653
   23601   23600   23652   23654   23601   23600   23602   23603
   23601   23600   23602   23604   23602   23600   23652   23653
   23602   23600   23652   23654   23602   23604   23606   23607
   23602   23604   23608   23610   23602   23604   23608   23609
   23652   23600   23602   23603   23603   23602   23604   23606
   23603   23602   23604   23605   23603   23602   23604   23608
   23652   23600   23602   23604   23604   23608   23610   23611
   23604   23608   23610   23612   23605   23604   23606   23607
   23605   23604   23608   23610   23605   23604   23608   23609
   23606   23604   23608   23610   23606   23604   23608   23609
   23608   23604   23606   23607   23608   23610   23612   23614
   23608   23610   23612   23613   23608   23610   23612   23615
   23609   23608   23610   23611   23609   23608   23610   23612
   23610   23612   23615   23617   23610   23612   23615   23616
   23610   23612   23615   23618   23611   23610   23612   23614
   23611   23610   23612   23613   23611   23610   23612   23615
   23612   23615   23618   23620   23612   23615   23618   23619
   23612   23615   23618   23621   23613   23612   23615   23617
   23613   23612   23615   23616   23613   23612   23615   23618
   23614   23612   23615   23617   23614   23612   23615   23616
   23614   23612   23615   23618   23615   23618   23621   23623
   23615   23618   23621   23622   23615   23618   23621   23624
   23616   23615   23618   23620   23616   23615   23618   23619
   23616   23615   23618   23621   23617   23615   23618   23620
   23617   23615   23618   23619   23617   23615   23618   23621
   23618   23621   23624   23626   23618   23621   23624   23625
   23618   23621   23624   23627   23619   23618   23621   23623
   23619   23618   23621   23622   23619   23618   23621   23624
   23620   23618   23621   23623   23620   23618   23621   23622
   23620   23618   23621   23624   23621   23624   23627   23629
   23621   23624   23627   23628   23621   23624   23627   23630
   23622   23621   23624   23626   23622   23621   23624   23625
   23622   23621   23624   23627   23623   23621   23624   23626
   23623   23621   23624   23625   23623   23621   23624   23627
   23624   23627   23630   23632   23624   23627   23630   23631
   23624   23627   23630   23633   23625   23624   23627   23629
   23625   23624   23627   23628   23625   23624   23627   23630
   23626   23624   23627   23629   23626   23624   23627   23628
   23626   23624   23627   23630   23627   23630   23633   23635
   23627   23630   23633   23634   23627   23630   23633   23636
   23628   23627   23630   23632   23628   23627   23630   23631
   23628   23627   23630   23633   23629   23627   23630   23632
   23629   23627   23630   23631   23629   23627   23630   23633
   23630   23633   23636   23638   23630   23633   23636   23637
   23630   23633   23636   23639   23631   23630   23633   23635
   23631   23630   23633   23634   23631   23630   23633   23636
   23632   23630   23633   23635   23632   23630   23633   23634
   23632   23630   23633   23636   23633   23636   23639   23641
   23633   23636   23639   23640   23633   23636   23639   23642
   23634   23633   23636   23638   23634   23633   23636   23637
   23634   23633   23636   23639   23635   23633   23636   23638
   23635   23633   23636   23637   23635   23633   23636   23639
   23636   23639   23642   23644   23636   23639   23642   23643
   23636   23639   23642   23645   23637   23636   23639   23641
   23637   23636   23639   23640   23637   23636   23639   23642
   23638   23636   23639   23641   23638   23636   23639   23640
   23638   23636   23639   23642   23639   23642   23645   23647
   23639   23642   23645   23646   23639   23642   23645   23648
   23640   23639   23642   23644   23640   23639   23642   23643
   23640   23639   23642   23645   23641   23639   23642   23644
   23641   23639   23642   23643   23641   23639   23642   23645
   23642   23645   23648   23651   23642   23645   23648   23650
   23642   23645   23648   23649   23643   23642   23645   23647
   23643   23642   23645   23646   23643   23642   23645   23648
   23644   23642   23645   23647   23644   23642   23645   23646
   23644   23642   23645   23648   23646   23645   23648   23651
   23646   23645   23648   23650   23646   23645   23648   23649
   23647   23645   23648   23651   23647   23645   23648   23650
   23647   23645   23648   23649   23652   23654   23657   23660
   23652   23654   23657   23659   23652   23654   23657   23658
   23653   23652   23654   23657   23653   23652   23654   23656
   23653   23652   23654   23655   23654   23657   23660   23663
   23654   23657   23660   23662   23654   23657   23660   23661
   23655   23654   23657   23660   23655   23654   23657   23659
   23655   23654   23657   23658   23656   23654   23657   23660
   23656   23654   23657   23659   23656   23654   23657   23658
   23657   23660   23663   23666   23657   23660   23663   23665
   23657   23660   23663   23664   23658   23657   23660   23663
   23658   23657   23660   23662   23658   23657   23660   23661
   23659   23657   23660   23663   23659   23657   23660   23662
   23659   23657   23660   23661   23660   23663   23666   23669
   23660   23663   23666   23668   23660   23663   23666   23667
   23661   23660   23663   23666   23661   23660   23663   23665
   23661   23660   23663   23664   23662   23660   23663   23666
   23662   23660   23663   23665   23662   23660   23663   23664
   23663   23666   23669   23672   23663   23666   23669   23671
   23663   23666   23669   23670   23664   23663   23666   23669
   23664   23663   23666   23668   23664   23663   23666   23667
   23665   23663   23666   23669   23665   23663   23666   23668
   23665   23663   23666   23667   23666   23669   23672   23675
   23666   23669   23672   23674   23666   23669   23672   23673
   23667   23666   23669   23672   23667   23666   23669   23671
   23667   23666   23669   23670   23668   23666   23669   23672
   23668   23666   23669   23671   23668   23666   23669   23670
   23669   23672   23675   23678   23669   23672   23675   23677
   23669   23672   23675   23676   23670   23669   23672   23675
   23670   23669   23672   23674   23670   23669   23672   23673
   23671   23669   23672   23675   23671   23669   23672   23674
   23671   23669   23672   23673   23672   23675   23678   23681
   23672   23675   23678   23680   23672   23675   23678   23679
   23673   23672   23675   23678   23673   23672   23675   23677
   23673   23672   23675   23676   23674   23672   23675   23678
   23674   23672   23675   23677   23674   23672   23675   23676
   23675   23678   23681   23684   23675   23678   23681   23683
   23675   23678   23681   23682   23676   23675   23678   23681
   23676   23675   23678   23680   23676   23675   23678   23679
   23677   23675   23678   23681   23677   23675   23678   23680
   23677   23675   23678   23679   23678   23681   23684   23687
   23678   23681   23684   23686   23678   23681   23684   23685
   23679   23678   23681   23684   23679   23678   23681   23683
   23679   23678   23681   23682   23680   23678   23681   23684
   23680   23678   23681   23683   23680   23678   23681   23682
   23681   23684   23687   23690   23681   23684   23687   23689
   23681   23684   23687   23688   23682   23681   23684   23687
   23682   23681   23684   23686   23682   23681   23684   23685
   23683   23681   23684   23687   23683   23681   23684   23686
   23683   23681   23684   23685   23684   23687   23690   23693
   23684   23687   23690   23692   23684   23687   23690   23691
   23685   23684   23687   23690   23685   23684   23687   23689
   23685   23684   23687   23688   23686   23684   23687   23690
   23686   23684   23687   23689   23686   23684   23687   23688
   23687   23690   23693   23696   23687   23690   23693   23695
   23687   23690   23693   23694   23688   23687   23690   23693
   23688   23687   23690   23692   23688   23687   23690   23691
   23689   23687   23690   23693   23689   23687   23690   23692
   23689   23687   23690   23691   23690   23693   23696   23699
   23690   23693   23696   23698   23690   23693   23696   23697
   23691   23690   23693   23696   23691   23690   23693   23695
   23691   23690   23693   23694   23692   23690   23693   23696
   23692   23690   23693   23695   23692   23690   23693   23694
   23694   23693   23696   23699   23694   23693   23696   23698
   23694   23693   23696   23697   23695   23693   23696   23699
   23695   23693   23696   23698   23695   23693   23696   23697
   23700   23701   23716   23722   23700   23701   23716   23718
   23700   23701   23716   23717   23701   23716   23722   23719
   23701   23700   23712   23715   23701   23700   23712   23714
   23701   23700   23712   23713   23701   23700   23708   23711
   23701   23700   23708   23710   23701   23700   23708   23709
   23701   23700   23704   23707   23701   23700   23704   23706
   23701   23700   23704   23705   23702   23701   23716   23722
   23702   23701   23716   23718   23702   23701   23716   23717
   23712   23700   23701   23702   23708   23700   23701   23702
   23704   23700   23701   23702   23703   23701   23716   23722
   23703   23701   23716   23718   23703   23701   23716   23717
   23712   23700   23701   23703   23708   23700   23701   23703
   23704   23700   23701   23703   23704   23700   23701   23716
   23704   23700   23712   23715   23704   23700   23712   23714
   23704   23700   23712   23713   23704   23700   23708   23711
   23704   23700   23708   23710   23704   23700   23708   23709
   23712   23700   23704   23705   23708   23700   23704   23705
   23712   23700   23704   23706   23708   23700   23704   23706
   23712   23700   23704   23707   23708   23700   23704   23707
   23708   23700   23701   23716   23708   23700   23712   23715
   23708   23700   23712   23714   23708   23700   23712   23713
   23712   23700   23708   23709   23712   23700   23708   23710
   23712   23700   23708   23711   23712   23700   23701   23716
   23721   23719   23722   23716   23720   23719   23722   23716
   23723   23719   23722   23716   23717   23716   23722   23719
   23718   23716   23722   23719   23719   23723   23724   23727
   23719   23723   23724   23726   23719   23723   23724   23725
   23720   23719   23723   23724   23721   23719   23723   23724
   23722   23719   23723   23724   23723   23724   23727   23729
   23723   23724   23727   23735   23723   23724   23727   23728
   23724   23727   23729   23730   23724   23727   23735   23738
   23724   23727   23735   23737   23724   23727   23735   23736
   23725   23724   23727   23729   23725   23724   23727   23735
   23725   23724   23727   23728   23726   23724   23727   23729
   23726   23724   23727   23735   23726   23724   23727   23728
   23727   23729   23730   23731   23727   23729   23730   23732
   23727   23735   23738   23739   23728   23727   23729   23730
   23728   23727   23735   23738   23728   23727   23735   23737
   23728   23727   23735   23736   23729   23730   23732   23744
   23729   23730   23732   23734   23729   23730   23732   23733
   23729   23727   23735   23738   23729   23727   23735   23737
   23729   23727   23735   23736   23730   23732   23744   23747
   23730   23732   23744   23746   23730   23732   23744   23745
   23735   23727   23729   23730   23731   23730   23732   23744
   23731   23730   23732   23734   23731   23730   23732   23733
   23732   23744   23747   23750   23732   23744   23747   23749
   23732   23744   23747   23748   23733   23732   23744   23747
   23733   23732   23744   23746   23733   23732   23744   23745
   23734   23732   23744   23747   23734   23732   23744   23746
   23734   23732   23744   23745   23735   23738   23739   23740
   23735   23738   23739   23741   23736   23735   23738   23739
   23737   23735   23738   23739   23738   23739   23741   23791
   23738   23739   23741   23743   23738   23739   23741   23742
   23739   23741   23791   23794   23739   23741   23791   23793
   23739   23741   23791   23792   23740   23739   23741   23791
   23740   23739   23741   23743   23740   23739   23741   23742
   23741   23791   23794   23797   23741   23791   23794   23796
   23741   23791   23794   23795   23742   23741   23791   23794
   23742   23741   23791   23793   23742   23741   23791   23792
   23743   23741   23791   23794   23743   23741   23791   23793
   23743   23741   23791   23792   23744   23747   23750   23753
   23744   23747   23750   23752   23744   23747   23750   23751
   23745   23744   23747   23750   23745   23744   23747   23749
   23745   23744   23747   23748   23746   23744   23747   23750
   23746   23744   23747   23749   23746   23744   23747   23748
   23747   23750   23753   23756   23747   23750   23753   23755
   23747   23750   23753   23754   23748   23747   23750   23753
   23748   23747   23750   23752   23748   23747   23750   23751
   23749   23747   23750   23753   23749   23747   23750   23752
   23749   23747   23750   23751   23750   23753   23756   23759
   23750   23753   23756   23758   23750   23753   23756   23757
   23751   23750   23753   23756   23751   23750   23753   23755
   23751   23750   23753   23754   23752   23750   23753   23756
   23752   23750   23753   23755   23752   23750   23753   23754
   23753   23756   23759   23762   23753   23756   23759   23761
   23753   23756   23759   23760   23754   23753   23756   23759
   23754   23753   23756   23758   23754   23753   23756   23757
   23755   23753   23756   23759   23755   23753   23756   23758
   23755   23753   23756   23757   23756   23759   23762   23764
   23756   23759   23762   23763   23757   23756   23759   23762
   23757   23756   23759   23761   23757   23756   23759   23760
   23758   23756   23759   23762   23758   23756   23759   23761
   23758   23756   23759   23760   23759   23762   23764   23766
   23759   23762   23764   23765   23760   23759   23762   23764
   23760   23759   23762   23763   23761   23759   23762   23764
   23761   23759   23762   23763   23762   23764   23766   23769
   23762   23764   23766   23768   23762   23764   23766   23767
   23763   23762   23764   23766   23763   23762   23764   23765
   23764   23766   23769   23772   23764   23766   23769   23771
   23764   23766   23769   23770   23765   23764   23766   23769
   23765   23764   23766   23768   23765   23764   23766   23767
   23766   23769   23772   23775   23766   23769   23772   23774
   23766   23769   23772   23773   23767   23766   23769   23772
   23767   23766   23769   23771   23767   23766   23769   23770
   23768   23766   23769   23772   23768   23766   23769   23771
   23768   23766   23769   23770   23769   23772   23775   23778
   23769   23772   23775   23777   23769   23772   23775   23776
   23770   23769   23772   23775   23770   23769   23772   23774
   23770   23769   23772   23773   23771   23769   23772   23775
   23771   23769   23772   23774   23771   23769   23772   23773
   23772   23775   23778   23781   23772   23775   23778   23780
   23772   23775   23778   23779   23773   23772   23775   23778
   23773   23772   23775   23777   23773   23772   23775   23776
   23774   23772   23775   23778   23774   23772   23775   23777
   23774   23772   23775   23776   23775   23778   23781   23784
   23775   23778   23781   23783   23775   23778   23781   23782
   23776   23775   23778   23781   23776   23775   23778   23780
   23776   23775   23778   23779   23777   23775   23778   23781
   23777   23775   23778   23780   23777   23775   23778   23779
   23778   23781   23784   23787   23778   23781   23784   23786
   23778   23781   23784   23785   23779   23778   23781   23784
   23779   23778   23781   23783   23779   23778   23781   23782
   23780   23778   23781   23784   23780   23778   23781   23783
   23780   23778   23781   23782   23781   23784   23787   23790
   23781   23784   23787   23789   23781   23784   23787   23788
   23782   23781   23784   23787   23782   23781   23784   23786
   23782   23781   23784   23785   23783   23781   23784   23787
   23783   23781   23784   23786   23783   23781   23784   23785
   23785   23784   23787   23790   23785   23784   23787   23789
   23785   23784   23787   23788   23786   23784   23787   23790
   23786   23784   23787   23789   23786   23784   23787   23788
   23791   23794   23797   23800   23791   23794   23797   23799
   23791   23794   23797   23798   23792   23791   23794   23797
   23792   23791   23794   23796   23792   23791   23794   23795
   23793   23791   23794   23797   23793   23791   23794   23796
   23793   23791   23794   23795   23794   23797   23800   23803
   23794   23797   23800   23802   23794   23797   23800   23801
   23795   23794   23797   23800   23795   23794   23797   23799
   23795   23794   23797   23798   23796   23794   23797   23800
   23796   23794   23797   23799   23796   23794   23797   23798
   23797   23800   23803   23806   23797   23800   23803   23805
   23797   23800   23803   23804   23798   23797   23800   23803
   23798   23797   23800   23802   23798   23797   23800   23801
   23799   23797   23800   23803   23799   23797   23800   23802
   23799   23797   23800   23801   23800   23803   23806   23809
   23800   23803   23806   23808   23800   23803   23806   23807
   23801   23800   23803   23806   23801   23800   23803   23805
   23801   23800   23803   23804   23802   23800   23803   23806
   23802   23800   23803   23805   23802   23800   23803   23804
   23803   23806   23809   23812   23803   23806   23809   23811
   23803   23806   23809   23810   23804   23803   23806   23809
   23804   23803   23806   23808   23804   23803   23806   23807
   23805   23803   23806   23809   23805   23803   23806   23808
   23805   23803   23806   23807   23806   23809   23812   23815
   23806   23809   23812   23814   23806   23809   23812   23813
   23807   23806   23809   23812   23807   23806   23809   23811
   23807   23806   23809   23810   23808   23806   23809   23812
   23808   23806   23809   23811   23808   23806   23809   23810
   23809   23812   23815   23818   23809   23812   23815   23817
   23809   23812   23815   23816   23810   23809   23812   23815
   23810   23809   23812   23814   23810   23809   23812   23813
   23811   23809   23812   23815   23811   23809   23812   23814
   23811   23809   23812   23813   23812   23815   23818   23821
   23812   23815   23818   23820   23812   23815   23818   23819
   23813   23812   23815   23818   23813   23812   23815   23817
   23813   23812   23815   23816   23814   23812   23815   23818
   23814   23812   23815   23817   23814   23812   23815   23816
   23815   23818   23821   23824   23815   23818   23821   23823
   23815   23818   23821   23822   23816   23815   23818   23821
   23816   23815   23818   23820   23816   23815   23818   23819
   23817   23815   23818   23821   23817   23815   23818   23820
   23817   23815   23818   23819   23818   23821   23824   23827
   23818   23821   23824   23826   23818   23821   23824   23825
   23819   23818   23821   23824   23819   23818   23821   23823
   23819   23818   23821   23822   23820   23818   23821   23824
   23820   23818   23821   23823   23820   23818   23821   23822
   23821   23824   23827   23830   23821   23824   23827   23829
   23821   23824   23827   23828   23822   23821   23824   23827
   23822   23821   23824   23826   23822   23821   23824   23825
   23823   23821   23824   23827   23823   23821   23824   23826
   23823   23821   23824   23825   23824   23827   23830   23833
   23824   23827   23830   23832   23824   23827   23830   23831
   23825   23824   23827   23830   23825   23824   23827   23829
   23825   23824   23827   23828   23826   23824   23827   23830
   23826   23824   23827   23829   23826   23824   23827   23828
   23828   23827   23830   23833   23828   23827   23830   23832
   23828   23827   23830   23831   23829   23827   23830   23833
   23829   23827   23830   23832   23829   23827   23830   23831
   23834   23847   23850   23852   23834   23847   23850   23851
   23834   23847   23850   23857   23835   23834   23839   23842
   23835   23834   23839   23841   23835   23834   23839   23840
   23835   23834   23843   23846   23835   23834   23843   23845
   23835   23834   23843   23844   23835   23834   23847   23849
   23835   23834   23847   23848   23835   23834   23847   23850
   23839   23834   23835   23836   23843   23834   23835   23836
   23847   23834   23835   23836   23839   23834   23835   23837
   23843   23834   23835   23837   23847   23834   23835   23837
   23839   23834   23835   23838   23843   23834   23835   23838
   23847   23834   23835   23838   23839   23834   23843   23846
   23839   23834   23843   23845   23839   23834   23843   23844
   23839   23834   23847   23849   23839   23834   23847   23848
   23839   23834   23847   23850   23843   23834   23839   23840
   23847   23834   23839   23840   23843   23834   23839   23841
   23847   23834   23839   23841   23843   23834   23839   23842
   23847   23834   23839   23842   23843   23834   23847   23849
   23843   23834   23847   23848   23843   23834   23847   23850
   23847   23834   23843   23844   23847   23834   23843   23845
   23847   23834   23843   23846   23847   23850   23857   23853
   23848   23847   23850   23852   23848   23847   23850   23851
   23848   23847   23850   23857   23849   23847   23850   23852
   23849   23847   23850   23851   23849   23847   23850   23857
   23855   23853   23857   23850   23854   23853   23857   23850
   23856   23853   23857   23850   23851   23850   23857   23853
   23852   23850   23857   23853   23853   23856   23858   23860
   23853   23856   23858   23859   23853   23856   23858   23863
   23854   23853   23856   23858   23855   23853   23856   23858
   23856   23858   23863   23861   23856   23858   23863   23864
   23856   23858   23863   23865   23857   23853   23856   23858
   23913   23861   23863   23858   23862   23861   23863   23858
   23858   23863   23865   23867   23858   23863   23865   23866
   23858   23863   23865   23869   23859   23858   23863   23861
   23859   23858   23863   23864   23859   23858   23863   23865
   23860   23858   23863   23861   23860   23858   23863   23864
   23860   23858   23863   23865   23861   23913   23915   23918
   23861   23913   23915   23917   23861   23913   23915   23916
   23861   23863   23865   23867   23861   23863   23865   23866
   23861   23863   23865   23869   23862   23861   23913   23914
   23862   23861   23913   23915   23862   23861   23863   23864
   23862   23861   23863   23865   23863   23861   23913   23914
   23863   23861   23913   23915   23863   23865   23867   23868
   23863   23865   23869   23871   23863   23865   23869   23870
   23913   23861   23863   23864   23864   23863   23865   23867
   23864   23863   23865   23866   23864   23863   23865   23869
   23913   23861   23863   23865   23865   23869   23871   23872
   23865   23869   23871   23873   23866   23865   23867   23868
   23866   23865   23869   23871   23866   23865   23869   23870
   23867   23865   23869   23871   23867   23865   23869   23870
   23869   23865   23867   23868   23869   23871   23873   23875
   23869   23871   23873   23874   23869   23871   23873   23876
   23870   23869   23871   23872   23870   23869   23871   23873
   23871   23873   23876   23878   23871   23873   23876   23877
   23871   23873   23876   23879   23872   23871   23873   23875
   23872   23871   23873   23874   23872   23871   23873   23876
   23873   23876   23879   23881   23873   23876   23879   23880
   23873   23876   23879   23882   23874   23873   23876   23878
   23874   23873   23876   23877   23874   23873   23876   23879
   23875   23873   23876   23878   23875   23873   23876   23877
   23875   23873   23876   23879   23876   23879   23882   23884
   23876   23879   23882   23883   23876   23879   23882   23885
   23877   23876   23879   23881   23877   23876   23879   23880
   23877   23876   23879   23882   23878   23876   23879   23881
   23878   23876   23879   23880   23878   23876   23879   23882
   23879   23882   23885   23887   23879   23882   23885   23886
   23879   23882   23885   23888   23880   23879   23882   23884
   23880   23879   23882   23883   23880   23879   23882   23885
   23881   23879   23882   23884   23881   23879   23882   23883
   23881   23879   23882   23885   23882   23885   23888   23890
   23882   23885   23888   23889   23882   23885   23888   23891
   23883   23882   23885   23887   23883   23882   23885   23886
   23883   23882   23885   23888   23884   23882   23885   23887
   23884   23882   23885   23886   23884   23882   23885   23888
   23885   23888   23891   23893   23885   23888   23891   23892
   23885   23888   23891   23894   23886   23885   23888   23890
   23886   23885   23888   23889   23886   23885   23888   23891
   23887   23885   23888   23890   23887   23885   23888   23889
   23887   23885   23888   23891   23888   23891   23894   23896
   23888   23891   23894   23895   23888   23891   23894   23897
   23889   23888   23891   23893   23889   23888   23891   23892
   23889   23888   23891   23894   23890   23888   23891   23893
   23890   23888   23891   23892   23890   23888   23891   23894
   23891   23894   23897   23899   23891   23894   23897   23898
   23891   23894   23897   23900   23892   23891   23894   23896
   23892   23891   23894   23895   23892   23891   23894   23897
   23893   23891   23894   23896   23893   23891   23894   23895
   23893   23891   23894   23897   23894   23897   23900   23902
   23894   23897   23900   23901   23894   23897   23900   23903
   23895   23894   23897   23899   23895   23894   23897   23898
   23895   23894   23897   23900   23896   23894   23897   23899
   23896   23894   23897   23898   23896   23894   23897   23900
   23897   23900   23903   23905   23897   23900   23903   23904
   23897   23900   23903   23906   23898   23897   23900   23902
   23898   23897   23900   23901   23898   23897   23900   23903
   23899   23897   23900   23902   23899   23897   23900   23901
   23899   23897   23900   23903   23900   23903   23906   23908
   23900   23903   23906   23907   23900   23903   23906   23909
   23901   23900   23903   23905   23901   23900   23903   23904
   23901   23900   23903   23906   23902   23900   23903   23905
   23902   23900   23903   23904   23902   23900   23903   23906
   23903   23906   23909   23912   23903   23906   23909   23911
   23903   23906   23909   23910   23904   23903   23906   23908
   23904   23903   23906   23907   23904   23903   23906   23909
   23905   23903   23906   23908   23905   23903   23906   23907
   23905   23903   23906   23909   23907   23906   23909   23912
   23907   23906   23909   23911   23907   23906   23909   23910
   23908   23906   23909   23912   23908   23906   23909   23911
   23908   23906   23909   23910   23913   23915   23918   23921
   23913   23915   23918   23920   23913   23915   23918   23919
   23914   23913   23915   23918   23914   23913   23915   23917
   23914   23913   23915   23916   23915   23918   23921   23924
   23915   23918   23921   23923   23915   23918   23921   23922
   23916   23915   23918   23921   23916   23915   23918   23920
   23916   23915   23918   23919   23917   23915   23918   23921
   23917   23915   23918   23920   23917   23915   23918   23919
   23918   23921   23924   23927   23918   23921   23924   23926
   23918   23921   23924   23925   23919   23918   23921   23924
   23919   23918   23921   23923   23919   23918   23921   23922
   23920   23918   23921   23924   23920   23918   23921   23923
   23920   23918   23921   23922   23921   23924   23927   23930
   23921   23924   23927   23929   23921   23924   23927   23928
   23922   23921   23924   23927   23922   23921   23924   23926
   23922   23921   23924   23925   23923   23921   23924   23927
   23923   23921   23924   23926   23923   23921   23924   23925
   23924   23927   23930   23933   23924   23927   23930   23932
   23924   23927   23930   23931   23925   23924   23927   23930
   23925   23924   23927   23929   23925   23924   23927   23928
   23926   23924   23927   23930   23926   23924   23927   23929
   23926   23924   23927   23928   23927   23930   23933   23936
   23927   23930   23933   23935   23927   23930   23933   23934
   23928   23927   23930   23933   23928   23927   23930   23932
   23928   23927   23930   23931   23929   23927   23930   23933
   23929   23927   23930   23932   23929   23927   23930   23931
   23930   23933   23936   23939   23930   23933   23936   23938
   23930   23933   23936   23937   23931   23930   23933   23936
   23931   23930   23933   23935   23931   23930   23933   23934
   23932   23930   23933   23936   23932   23930   23933   23935
   23932   23930   23933   23934   23933   23936   23939   23942
   23933   23936   23939   23941   23933   23936   23939   23940
   23934   23933   23936   23939   23934   23933   23936   23938
   23934   23933   23936   23937   23935   23933   23936   23939
   23935   23933   23936   23938   23935   23933   23936   23937
   23936   23939   23942   23945   23936   23939   23942   23944
   23936   23939   23942   23943   23937   23936   23939   23942
   23937   23936   23939   23941   23937   23936   23939   23940
   23938   23936   23939   23942   23938   23936   23939   23941
   23938   23936   23939   23940   23939   23942   23945   23948
   23939   23942   23945   23947   23939   23942   23945   23946
   23940   23939   23942   23945   23940   23939   23942   23944
   23940   23939   23942   23943   23941   23939   23942   23945
   23941   23939   23942   23944   23941   23939   23942   23943
   23942   23945   23948   23951   23942   23945   23948   23950
   23942   23945   23948   23949   23943   23942   23945   23948
   23943   23942   23945   23947   23943   23942   23945   23946
   23944   23942   23945   23948   23944   23942   23945   23947
   23944   23942   23945   23946   23945   23948   23951   23954
   23945   23948   23951   23953   23945   23948   23951   23952
   23946   23945   23948   23951   23946   23945   23948   23950
   23946   23945   23948   23949   23947   23945   23948   23951
   23947   23945   23948   23950   23947   23945   23948   23949
   23948   23951   23954   23957   23948   23951   23954   23956
   23948   23951   23954   23955   23949   23948   23951   23954
   23949   23948   23951   23953   23949   23948   23951   23952
   23950   23948   23951   23954   23950   23948   23951   23953
   23950   23948   23951   23952   23951   23954   23957   23960
   23951   23954   23957   23959   23951   23954   23957   23958
   23952   23951   23954   23957   23952   23951   23954   23956
   23952   23951   23954   23955   23953   23951   23954   23957
   23953   23951   23954   23956   23953   23951   23954   23955
   23955   23954   23957   23960   23955   23954   23957   23959
   23955   23954   23957   23958   23956   23954   23957   23960
   23956   23954   23957   23959   23956   23954   23957   23958
   23961   23965   23968   23975   23961   23965   23968   23970
   23961   23965   23968   23969   23962   23961   23965   23968
   23962   23961   23965   23967   23962   23961   23965   23966
   23963   23961   23965   23968   23963   23961   23965   23967
   23963   23961   23965   23966   23964   23961   23965   23968
   23964   23961   23965   23967   23964   23961   23965   23966
   23965   23968   23975   23971   23966   23965   23968   23975
   23966   23965   23968   23970   23966   23965   23968   23969
   23967   23965   23968   23975   23967   23965   23968   23970
   23967   23965   23968   23969   23973   23971   23975   23968
   23972   23971   23975   23968   23974   23971   23975   23968
   23969   23968   23975   23971   23970   23968   23975   23971
   23971   23974   23976   23979   23971   23974   23976   23978
   23971   23974   23976   23977   23972   23971   23974   23976
   23973   23971   23974   23976   23974   23976   23979   23981
   23974   23976   23979   23987   23974   23976   23979   23980
   23975   23971   23974   23976   23976   23979   23981   23982
   23976   23979   23987   23990   23976   23979   23987   23989
   23976   23979   23987   23988   23977   23976   23979   23981
   23977   23976   23979   23987   23977   23976   23979   23980
   23978   23976   23979   23981   23978   23976   23979   23987
   23978   23976   23979   23980   23979   23981   23982   23983
   23979   23981   23982   23984   23979   23987   23990   23991
   23980   23979   23981   23982   23980   23979   23987   23990
   23980   23979   23987   23989   23980   23979   23987   23988
   23981   23982   23984   23996   23981   23982   23984   23986
   23981   23982   23984   23985   23981   23979   23987   23990
   23981   23979   23987   23989   23981   23979   23987   23988
   23982   23984   23996   23999   23982   23984   23996   23998
   23982   23984   23996   23997   23987   23979   23981   23982
   23983   23982   23984   23996   23983   23982   23984   23986
   23983   23982   23984   23985   23984   23996   23999   24002
   23984   23996   23999   24001   23984   23996   23999   24000
   23985   23984   23996   23999   23985   23984   23996   23998
   23985   23984   23996   23997   23986   23984   23996   23999
   23986   23984   23996   23998   23986   23984   23996   23997
   23987   23990   23991   23992   23987   23990   23991   23993
   23988   23987   23990   23991   23989   23987   23990   23991
   23990   23991   23993   24043   23990   23991   23993   23995
   23990   23991   23993   23994   23991   23993   24043   24046
   23991   23993   24043   24045   23991   23993   24043   24044
   23992   23991   23993   24043   23992   23991   23993   23995
   23992   23991   23993   23994   23993   24043   24046   24049
   23993   24043   24046   24048   23993   24043   24046   24047
   23994   23993   24043   24046   23994   23993   24043   24045
   23994   23993   24043   24044   23995   23993   24043   24046
   23995   23993   24043   24045   23995   23993   24043   24044
   23996   23999   24002   24005   23996   23999   24002   24004
   23996   23999   24002   24003   23997   23996   23999   24002
   23997   23996   23999   24001   23997   23996   23999   24000
   23998   23996   23999   24002   23998   23996   23999   24001
   23998   23996   23999   24000   23999   24002   24005   24008
   23999   24002   24005   24007   23999   24002   24005   24006
   24000   23999   24002   24005   24000   23999   24002   24004
   24000   23999   24002   24003   24001   23999   24002   24005
   24001   23999   24002   24004   24001   23999   24002   24003
   24002   24005   24008   24011   24002   24005   24008   24010
   24002   24005   24008   24009   24003   24002   24005   24008
   24003   24002   24005   24007   24003   24002   24005   24006
   24004   24002   24005   24008   24004   24002   24005   24007
   24004   24002   24005   24006   24005   24008   24011   24014
   24005   24008   24011   24013   24005   24008   24011   24012
   24006   24005   24008   24011   24006   24005   24008   24010
   24006   24005   24008   24009   24007   24005   24008   24011
   24007   24005   24008   24010   24007   24005   24008   24009
   24008   24011   24014   24016   24008   24011   24014   24015
   24009   24008   24011   24014   24009   24008   24011   24013
   24009   24008   24011   24012   24010   24008   24011   24014
   24010   24008   24011   24013   24010   24008   24011   24012
   24011   24014   24016   24018   24011   24014   24016   24017
   24012   24011   24014   24016   24012   24011   24014   24015
   24013   24011   24014   24016   24013   24011   24014   24015
   24014   24016   24018   24021   24014   24016   24018   24020
   24014   24016   24018   24019   24015   24014   24016   24018
   24015   24014   24016   24017   24016   24018   24021   24024
   24016   24018   24021   24023   24016   24018   24021   24022
   24017   24016   24018   24021   24017   24016   24018   24020
   24017   24016   24018   24019   24018   24021   24024   24027
   24018   24021   24024   24026   24018   24021   24024   24025
   24019   24018   24021   24024   24019   24018   24021   24023
   24019   24018   24021   24022   24020   24018   24021   24024
   24020   24018   24021   24023   24020   24018   24021   24022
   24021   24024   24027   24030   24021   24024   24027   24029
   24021   24024   24027   24028   24022   24021   24024   24027
   24022   24021   24024   24026   24022   24021   24024   24025
   24023   24021   24024   24027   24023   24021   24024   24026
   24023   24021   24024   24025   24024   24027   24030   24033
   24024   24027   24030   24032   24024   24027   24030   24031
   24025   24024   24027   24030   24025   24024   24027   24029
   24025   24024   24027   24028   24026   24024   24027   24030
   24026   24024   24027   24029   24026   24024   24027   24028
   24027   24030   24033   24036   24027   24030   24033   24035
   24027   24030   24033   24034   24028   24027   24030   24033
   24028   24027   24030   24032   24028   24027   24030   24031
   24029   24027   24030   24033   24029   24027   24030   24032
   24029   24027   24030   24031   24030   24033   24036   24039
   24030   24033   24036   24038   24030   24033   24036   24037
   24031   24030   24033   24036   24031   24030   24033   24035
   24031   24030   24033   24034   24032   24030   24033   24036
   24032   24030   24033   24035   24032   24030   24033   24034
   24033   24036   24039   24042   24033   24036   24039   24041
   24033   24036   24039   24040   24034   24033   24036   24039
   24034   24033   24036   24038   24034   24033   24036   24037
   24035   24033   24036   24039   24035   24033   24036   24038
   24035   24033   24036   24037   24037   24036   24039   24042
   24037   24036   24039   24041   24037   24036   24039   24040
   24038   24036   24039   24042   24038   24036   24039   24041
   24038   24036   24039   24040   24043   24046   24049   24052
   24043   24046   24049   24051   24043   24046   24049   24050
   24044   24043   24046   24049   24044   24043   24046   24048
   24044   24043   24046   24047   24045   24043   24046   24049
   24045   24043   24046   24048   24045   24043   24046   24047
   24046   24049   24052   24055   24046   24049   24052   24054
   24046   24049   24052   24053   24047   24046   24049   24052
   24047   24046   24049   24051   24047   24046   24049   24050
   24048   24046   24049   24052   24048   24046   24049   24051
   24048   24046   24049   24050   24049   24052   24055   24058
   24049   24052   24055   24057   24049   24052   24055   24056
   24050   24049   24052   24055   24050   24049   24052   24054
   24050   24049   24052   24053   24051   24049   24052   24055
   24051   24049   24052   24054   24051   24049   24052   24053
   24052   24055   24058   24061   24052   24055   24058   24060
   24052   24055   24058   24059   24053   24052   24055   24058
   24053   24052   24055   24057   24053   24052   24055   24056
   24054   24052   24055   24058   24054   24052   24055   24057
   24054   24052   24055   24056   24055   24058   24061   24064
   24055   24058   24061   24063   24055   24058   24061   24062
   24056   24055   24058   24061   24056   24055   24058   24060
   24056   24055   24058   24059   24057   24055   24058   24061
   24057   24055   24058   24060   24057   24055   24058   24059
   24058   24061   24064   24067   24058   24061   24064   24066
   24058   24061   24064   24065   24059   24058   24061   24064
   24059   24058   24061   24063   24059   24058   24061   24062
   24060   24058   24061   24064   24060   24058   24061   24063
   24060   24058   24061   24062   24061   24064   24067   24070
   24061   24064   24067   24069   24061   24064   24067   24068
   24062   24061   24064   24067   24062   24061   24064   24066
   24062   24061   24064   24065   24063   24061   24064   24067
   24063   24061   24064   24066   24063   24061   24064   24065
   24064   24067   24070   24073   24064   24067   24070   24072
   24064   24067   24070   24071   24065   24064   24067   24070
   24065   24064   24067   24069   24065   24064   24067   24068
   24066   24064   24067   24070   24066   24064   24067   24069
   24066   24064   24067   24068   24067   24070   24073   24076
   24067   24070   24073   24075   24067   24070   24073   24074
   24068   24067   24070   24073   24068   24067   24070   24072
   24068   24067   24070   24071   24069   24067   24070   24073
   24069   24067   24070   24072   24069   24067   24070   24071
   24070   24073   24076   24079   24070   24073   24076   24078
   24070   24073   24076   24077   24071   24070   24073   24076
   24071   24070   24073   24075   24071   24070   24073   24074
   24072   24070   24073   24076   24072   24070   24073   24075
   24072   24070   24073   24074   24073   24076   24079   24082
   24073   24076   24079   24081   24073   24076   24079   24080
   24074   24073   24076   24079   24074   24073   24076   24078
   24074   24073   24076   24077   24075   24073   24076   24079
   24075   24073   24076   24078   24075   24073   24076   24077
   24076   24079   24082   24085   24076   24079   24082   24084
   24076   24079   24082   24083   24077   24076   24079   24082
   24077   24076   24079   24081   24077   24076   24079   24080
   24078   24076   24079   24082   24078   24076   24079   24081
   24078   24076   24079   24080   24080   24079   24082   24085
   24080   24079   24082   24084   24080   24079   24082   24083
   24081   24079   24082   24085   24081   24079   24082   24084
   24081   24079   24082   24083   24086   24090   24095   24101
   24086   24090   24095   24097   24086   24090   24095   24096
   24086   24090   24092   24093   24086   24090   24092   24094
   24087   24086   24090   24095   24087   24086   24090   24091
   24087   24086   24090   24092   24088   24086   24090   24095
   24088   24086   24090   24091   24088   24086   24090   24092
   24089   24086   24090   24095   24089   24086   24090   24091
   24089   24086   24090   24092   24090   24095   24101   24098
   24091   24090   24095   24101   24091   24090   24095   24097
   24091   24090   24095   24096   24091   24090   24092   24093
   24091   24090   24092   24094   24092   24090   24095   24101
   24092   24090   24095   24097   24092   24090   24095   24096
   24095   24090   24092   24093   24095   24090   24092   24094
   24100   24098   24101   24095   24099   24098   24101   24095
   24102   24098   24101   24095   24096   24095   24101   24098
   24097   24095   24101   24098   24098   24102   24103   24106
   24098   24102   24103   24105   24098   24102   24103   24104
   24099   24098   24102   24103   24100   24098   24102   24103
   24101   24098   24102   24103   24102   24103   24106   24108
   24102   24103   24106   24114   24102   24103   24106   24107
   24103   24106   24108   24109   24103   24106   24114   24117
   24103   24106   24114   24116   24103   24106   24114   24115
   24104   24103   24106   24108   24104   24103   24106   24114
   24104   24103   24106   24107   24105   24103   24106   24108
   24105   24103   24106   24114   24105   24103   24106   24107
   24106   24108   24109   24110   24106   24108   24109   24111
   24106   24114   24117   24118   24107   24106   24108   24109
   24107   24106   24114   24117   24107   24106   24114   24116
   24107   24106   24114   24115   24108   24109   24111   24123
   24108   24109   24111   24113   24108   24109   24111   24112
   24108   24106   24114   24117   24108   24106   24114   24116
   24108   24106   24114   24115   24109   24111   24123   24126
   24109   24111   24123   24125   24109   24111   24123   24124
   24114   24106   24108   24109   24110   24109   24111   24123
   24110   24109   24111   24113   24110   24109   24111   24112
   24111   24123   24126   24129   24111   24123   24126   24128
   24111   24123   24126   24127   24112   24111   24123   24126
   24112   24111   24123   24125   24112   24111   24123   24124
   24113   24111   24123   24126   24113   24111   24123   24125
   24113   24111   24123   24124   24114   24117   24118   24119
   24114   24117   24118   24120   24115   24114   24117   24118
   24116   24114   24117   24118   24117   24118   24120   24170
   24117   24118   24120   24122   24117   24118   24120   24121
   24118   24120   24170   24173   24118   24120   24170   24172
   24118   24120   24170   24171   24119   24118   24120   24170
   24119   24118   24120   24122   24119   24118   24120   24121
   24120   24170   24173   24176   24120   24170   24173   24175
   24120   24170   24173   24174   24121   24120   24170   24173
   24121   24120   24170   24172   24121   24120   24170   24171
   24122   24120   24170   24173   24122   24120   24170   24172
   24122   24120   24170   24171   24123   24126   24129   24132
   24123   24126   24129   24131   24123   24126   24129   24130
   24124   24123   24126   24129   24124   24123   24126   24128
   24124   24123   24126   24127   24125   24123   24126   24129
   24125   24123   24126   24128   24125   24123   24126   24127
   24126   24129   24132   24135   24126   24129   24132   24134
   24126   24129   24132   24133   24127   24126   24129   24132
   24127   24126   24129   24131   24127   24126   24129   24130
   24128   24126   24129   24132   24128   24126   24129   24131
   24128   24126   24129   24130   24129   24132   24135   24138
   24129   24132   24135   24137   24129   24132   24135   24136
   24130   24129   24132   24135   24130   24129   24132   24134
   24130   24129   24132   24133   24131   24129   24132   24135
   24131   24129   24132   24134   24131   24129   24132   24133
   24132   24135   24138   24141   24132   24135   24138   24140
   24132   24135   24138   24139   24133   24132   24135   24138
   24133   24132   24135   24137   24133   24132   24135   24136
   24134   24132   24135   24138   24134   24132   24135   24137
   24134   24132   24135   24136   24135   24138   24141   24143
   24135   24138   24141   24142   24136   24135   24138   24141
   24136   24135   24138   24140   24136   24135   24138   24139
   24137   24135   24138   24141   24137   24135   24138   24140
   24137   24135   24138   24139   24138   24141   24143   24145
   24138   24141   24143   24144   24139   24138   24141   24143
   24139   24138   24141   24142   24140   24138   24141   24143
   24140   24138   24141   24142   24141   24143   24145   24148
   24141   24143   24145   24147   24141   24143   24145   24146
   24142   24141   24143   24145   24142   24141   24143   24144
   24143   24145   24148   24151   24143   24145   24148   24150
   24143   24145   24148   24149   24144   24143   24145   24148
   24144   24143   24145   24147   24144   24143   24145   24146
   24145   24148   24151   24154   24145   24148   24151   24153
   24145   24148   24151   24152   24146   24145   24148   24151
   24146   24145   24148   24150   24146   24145   24148   24149
   24147   24145   24148   24151   24147   24145   24148   24150
   24147   24145   24148   24149   24148   24151   24154   24157
   24148   24151   24154   24156   24148   24151   24154   24155
   24149   24148   24151   24154   24149   24148   24151   24153
   24149   24148   24151   24152   24150   24148   24151   24154
   24150   24148   24151   24153   24150   24148   24151   24152
   24151   24154   24157   24160   24151   24154   24157   24159
   24151   24154   24157   24158   24152   24151   24154   24157
   24152   24151   24154   24156   24152   24151   24154   24155
   24153   24151   24154   24157   24153   24151   24154   24156
   24153   24151   24154   24155   24154   24157   24160   24163
   24154   24157   24160   24162   24154   24157   24160   24161
   24155   24154   24157   24160   24155   24154   24157   24159
   24155   24154   24157   24158   24156   24154   24157   24160
   24156   24154   24157   24159   24156   24154   24157   24158
   24157   24160   24163   24166   24157   24160   24163   24165
   24157   24160   24163   24164   24158   24157   24160   24163
   24158   24157   24160   24162   24158   24157   24160   24161
   24159   24157   24160   24163   24159   24157   24160   24162
   24159   24157   24160   24161   24160   24163   24166   24169
   24160   24163   24166   24168   24160   24163   24166   24167
   24161   24160   24163   24166   24161   24160   24163   24165
   24161   24160   24163   24164   24162   24160   24163   24166
   24162   24160   24163   24165   24162   24160   24163   24164
   24164   24163   24166   24169   24164   24163   24166   24168
   24164   24163   24166   24167   24165   24163   24166   24169
   24165   24163   24166   24168   24165   24163   24166   24167
   24170   24173   24176   24179   24170   24173   24176   24178
   24170   24173   24176   24177   24171   24170   24173   24176
   24171   24170   24173   24175   24171   24170   24173   24174
   24172   24170   24173   24176   24172   24170   24173   24175
   24172   24170   24173   24174   24173   24176   24179   24182
   24173   24176   24179   24181   24173   24176   24179   24180
   24174   24173   24176   24179   24174   24173   24176   24178
   24174   24173   24176   24177   24175   24173   24176   24179
   24175   24173   24176   24178   24175   24173   24176   24177
   24176   24179   24182   24185   24176   24179   24182   24184
   24176   24179   24182   24183   24177   24176   24179   24182
   24177   24176   24179   24181   24177   24176   24179   24180
   24178   24176   24179   24182   24178   24176   24179   24181
   24178   24176   24179   24180   24179   24182   24185   24188
   24179   24182   24185   24187   24179   24182   24185   24186
   24180   24179   24182   24185   24180   24179   24182   24184
   24180   24179   24182   24183   24181   24179   24182   24185
   24181   24179   24182   24184   24181   24179   24182   24183
   24182   24185   24188   24191   24182   24185   24188   24190
   24182   24185   24188   24189   24183   24182   24185   24188
   24183   24182   24185   24187   24183   24182   24185   24186
   24184   24182   24185   24188   24184   24182   24185   24187
   24184   24182   24185   24186   24185   24188   24191   24194
   24185   24188   24191   24193   24185   24188   24191   24192
   24186   24185   24188   24191   24186   24185   24188   24190
   24186   24185   24188   24189   24187   24185   24188   24191
   24187   24185   24188   24190   24187   24185   24188   24189
   24188   24191   24194   24197   24188   24191   24194   24196
   24188   24191   24194   24195   24189   24188   24191   24194
   24189   24188   24191   24193   24189   24188   24191   24192
   24190   24188   24191   24194   24190   24188   24191   24193
   24190   24188   24191   24192   24191   24194   24197   24200
   24191   24194   24197   24199   24191   24194   24197   24198
   24192   24191   24194   24197   24192   24191   24194   24196
   24192   24191   24194   24195   24193   24191   24194   24197
   24193   24191   24194   24196   24193   24191   24194   24195
   24194   24197   24200   24203   24194   24197   24200   24202
   24194   24197   24200   24201   24195   24194   24197   24200
   24195   24194   24197   24199   24195   24194   24197   24198
   24196   24194   24197   24200   24196   24194   24197   24199
   24196   24194   24197   24198   24197   24200   24203   24206
   24197   24200   24203   24205   24197   24200   24203   24204
   24198   24197   24200   24203   24198   24197   24200   24202
   24198   24197   24200   24201   24199   24197   24200   24203
   24199   24197   24200   24202   24199   24197   24200   24201
   24200   24203   24206   24209   24200   24203   24206   24208
   24200   24203   24206   24207   24201   24200   24203   24206
   24201   24200   24203   24205   24201   24200   24203   24204
   24202   24200   24203   24206   24202   24200   24203   24205
   24202   24200   24203   24204   24203   24206   24209   24212
   24203   24206   24209   24211   24203   24206   24209   24210
   24204   24203   24206   24209   24204   24203   24206   24208
   24204   24203   24206   24207   24205   24203   24206   24209
   24205   24203   24206   24208   24205   24203   24206   24207
   24207   24206   24209   24212   24207   24206   24209   24211
   24207   24206   24209   24210   24208   24206   24209   24212
   24208   24206   24209   24211   24208   24206   24209   24210
   24213   24214   24229   24235   24213   24214   24229   24231
   24213   24214   24229   24230   24214   24229   24235   24232
   24214   24213   24225   24228   24214   24213   24225   24227
   24214   24213   24225   24226   24214   24213   24221   24224
   24214   24213   24221   24223   24214   24213   24221   24222
   24214   24213   24217   24220   24214   24213   24217   24219
   24214   24213   24217   24218   24215   24214   24229   24235
   24215   24214   24229   24231   24215   24214   24229   24230
   24225   24213   24214   24215   24221   24213   24214   24215
   24217   24213   24214   24215   24216   24214   24229   24235
   24216   24214   24229   24231   24216   24214   24229   24230
   24225   24213   24214   24216   24221   24213   24214   24216
   24217   24213   24214   24216   24217   24213   24214   24229
   24217   24213   24225   24228   24217   24213   24225   24227
   24217   24213   24225   24226   24217   24213   24221   24224
   24217   24213   24221   24223   24217   24213   24221   24222
   24225   24213   24217   24218   24221   24213   24217   24218
   24225   24213   24217   24219   24221   24213   24217   24219
   24225   24213   24217   24220   24221   24213   24217   24220
   24221   24213   24214   24229   24221   24213   24225   24228
   24221   24213   24225   24227   24221   24213   24225   24226
   24225   24213   24221   24222   24225   24213   24221   24223
   24225   24213   24221   24224   24225   24213   24214   24229
   24234   24232   24235   24229   24233   24232   24235   24229
   24236   24232   24235   24229   24230   24229   24235   24232
   24231   24229   24235   24232   24232   24236   24237   24240
   24232   24236   24237   24239   24232   24236   24237   24238
   24233   24232   24236   24237   24234   24232   24236   24237
   24235   24232   24236   24237   24236   24237   24240   24242
   24236   24237   24240   24248   24236   24237   24240   24241
   24237   24240   24242   24243   24237   24240   24248   24251
   24237   24240   24248   24250   24237   24240   24248   24249
   24238   24237   24240   24242   24238   24237   24240   24248
   24238   24237   24240   24241   24239   24237   24240   24242
   24239   24237   24240   24248   24239   24237   24240   24241
   24240   24242   24243   24244   24240   24242   24243   24245
   24240   24248   24251   24252   24241   24240   24242   24243
   24241   24240   24248   24251   24241   24240   24248   24250
   24241   24240   24248   24249   24242   24243   24245   24257
   24242   24243   24245   24247   24242   24243   24245   24246
   24242   24240   24248   24251   24242   24240   24248   24250
   24242   24240   24248   24249   24243   24245   24257   24260
   24243   24245   24257   24259   24243   24245   24257   24258
   24248   24240   24242   24243   24244   24243   24245   24257
   24244   24243   24245   24247   24244   24243   24245   24246
   24245   24257   24260   24263   24245   24257   24260   24262
   24245   24257   24260   24261   24246   24245   24257   24260
   24246   24245   24257   24259   24246   24245   24257   24258
   24247   24245   24257   24260   24247   24245   24257   24259
   24247   24245   24257   24258   24248   24251   24252   24253
   24248   24251   24252   24254   24249   24248   24251   24252
   24250   24248   24251   24252   24251   24252   24254   24304
   24251   24252   24254   24256   24251   24252   24254   24255
   24252   24254   24304   24307   24252   24254   24304   24306
   24252   24254   24304   24305   24253   24252   24254   24304
   24253   24252   24254   24256   24253   24252   24254   24255
   24254   24304   24307   24310   24254   24304   24307   24309
   24254   24304   24307   24308   24255   24254   24304   24307
   24255   24254   24304   24306   24255   24254   24304   24305
   24256   24254   24304   24307   24256   24254   24304   24306
   24256   24254   24304   24305   24257   24260   24263   24266
   24257   24260   24263   24265   24257   24260   24263   24264
   24258   24257   24260   24263   24258   24257   24260   24262
   24258   24257   24260   24261   24259   24257   24260   24263
   24259   24257   24260   24262   24259   24257   24260   24261
   24260   24263   24266   24269   24260   24263   24266   24268
   24260   24263   24266   24267   24261   24260   24263   24266
   24261   24260   24263   24265   24261   24260   24263   24264
   24262   24260   24263   24266   24262   24260   24263   24265
   24262   24260   24263   24264   24263   24266   24269   24272
   24263   24266   24269   24271   24263   24266   24269   24270
   24264   24263   24266   24269   24264   24263   24266   24268
   24264   24263   24266   24267   24265   24263   24266   24269
   24265   24263   24266   24268   24265   24263   24266   24267
   24266   24269   24272   24275   24266   24269   24272   24274
   24266   24269   24272   24273   24267   24266   24269   24272
   24267   24266   24269   24271   24267   24266   24269   24270
   24268   24266   24269   24272   24268   24266   24269   24271
   24268   24266   24269   24270   24269   24272   24275   24277
   24269   24272   24275   24276   24270   24269   24272   24275
   24270   24269   24272   24274   24270   24269   24272   24273
   24271   24269   24272   24275   24271   24269   24272   24274
   24271   24269   24272   24273   24272   24275   24277   24279
   24272   24275   24277   24278   24273   24272   24275   24277
   24273   24272   24275   24276   24274   24272   24275   24277
   24274   24272   24275   24276   24275   24277   24279   24282
   24275   24277   24279   24281   24275   24277   24279   24280
   24276   24275   24277   24279   24276   24275   24277   24278
   24277   24279   24282   24285   24277   24279   24282   24284
   24277   24279   24282   24283   24278   24277   24279   24282
   24278   24277   24279   24281   24278   24277   24279   24280
   24279   24282   24285   24288   24279   24282   24285   24287
   24279   24282   24285   24286   24280   24279   24282   24285
   24280   24279   24282   24284   24280   24279   24282   24283
   24281   24279   24282   24285   24281   24279   24282   24284
   24281   24279   24282   24283   24282   24285   24288   24291
   24282   24285   24288   24290   24282   24285   24288   24289
   24283   24282   24285   24288   24283   24282   24285   24287
   24283   24282   24285   24286   24284   24282   24285   24288
   24284   24282   24285   24287   24284   24282   24285   24286
   24285   24288   24291   24294   24285   24288   24291   24293
   24285   24288   24291   24292   24286   24285   24288   24291
   24286   24285   24288   24290   24286   24285   24288   24289
   24287   24285   24288   24291   24287   24285   24288   24290
   24287   24285   24288   24289   24288   24291   24294   24297
   24288   24291   24294   24296   24288   24291   24294   24295
   24289   24288   24291   24294   24289   24288   24291   24293
   24289   24288   24291   24292   24290   24288   24291   24294
   24290   24288   24291   24293   24290   24288   24291   24292
   24291   24294   24297   24300   24291   24294   24297   24299
   24291   24294   24297   24298   24292   24291   24294   24297
   24292   24291   24294   24296   24292   24291   24294   24295
   24293   24291   24294   24297   24293   24291   24294   24296
   24293   24291   24294   24295   24294   24297   24300   24303
   24294   24297   24300   24302   24294   24297   24300   24301
   24295   24294   24297   24300   24295   24294   24297   24299
   24295   24294   24297   24298   24296   24294   24297   24300
   24296   24294   24297   24299   24296   24294   24297   24298
   24298   24297   24300   24303   24298   24297   24300   24302
   24298   24297   24300   24301   24299   24297   24300   24303
   24299   24297   24300   24302   24299   24297   24300   24301
   24304   24307   24310   24313   24304   24307   24310   24312
   24304   24307   24310   24311   24305   24304   24307   24310
   24305   24304   24307   24309   24305   24304   24307   24308
   24306   24304   24307   24310   24306   24304   24307   24309
   24306   24304   24307   24308   24307   24310   24313   24316
   24307   24310   24313   24315   24307   24310   24313   24314
   24308   24307   24310   24313   24308   24307   24310   24312
   24308   24307   24310   24311   24309   24307   24310   24313
   24309   24307   24310   24312   24309   24307   24310   24311
   24310   24313   24316   24319   24310   24313   24316   24318
   24310   24313   24316   24317   24311   24310   24313   24316
   24311   24310   24313   24315   24311   24310   24313   24314
   24312   24310   24313   24316   24312   24310   24313   24315
   24312   24310   24313   24314   24313   24316   24319   24322
   24313   24316   24319   24321   24313   24316   24319   24320
   24314   24313   24316   24319   24314   24313   24316   24318
   24314   24313   24316   24317   24315   24313   24316   24319
   24315   24313   24316   24318   24315   24313   24316   24317
   24316   24319   24322   24325   24316   24319   24322   24324
   24316   24319   24322   24323   24317   24316   24319   24322
   24317   24316   24319   24321   24317   24316   24319   24320
   24318   24316   24319   24322   24318   24316   24319   24321
   24318   24316   24319   24320   24319   24322   24325   24328
   24319   24322   24325   24327   24319   24322   24325   24326
   24320   24319   24322   24325   24320   24319   24322   24324
   24320   24319   24322   24323   24321   24319   24322   24325
   24321   24319   24322   24324   24321   24319   24322   24323
   24322   24325   24328   24331   24322   24325   24328   24330
   24322   24325   24328   24329   24323   24322   24325   24328
   24323   24322   24325   24327   24323   24322   24325   24326
   24324   24322   24325   24328   24324   24322   24325   24327
   24324   24322   24325   24326   24325   24328   24331   24334
   24325   24328   24331   24333   24325   24328   24331   24332
   24326   24325   24328   24331   24326   24325   24328   24330
   24326   24325   24328   24329   24327   24325   24328   24331
   24327   24325   24328   24330   24327   24325   24328   24329
   24328   24331   24334   24337   24328   24331   24334   24336
   24328   24331   24334   24335   24329   24328   24331   24334
   24329   24328   24331   24333   24329   24328   24331   24332
   24330   24328   24331   24334   24330   24328   24331   24333
   24330   24328   24331   24332   24331   24334   24337   24340
   24331   24334   24337   24339   24331   24334   24337   24338
   24332   24331   24334   24337   24332   24331   24334   24336
   24332   24331   24334   24335   24333   24331   24334   24337
   24333   24331   24334   24336   24333   24331   24334   24335
   24334   24337   24340   24343   24334   24337   24340   24342
   24334   24337   24340   24341   24335   24334   24337   24340
   24335   24334   24337   24339   24335   24334   24337   24338
   24336   24334   24337   24340   24336   24334   24337   24339
   24336   24334   24337   24338   24337   24340   24343   24346
   24337   24340   24343   24345   24337   24340   24343   24344
   24338   24337   24340   24343   24338   24337   24340   24342
   24338   24337   24340   24341   24339   24337   24340   24343
   24339   24337   24340   24342   24339   24337   24340   24341
   24341   24340   24343   24346   24341   24340   24343   24345
   24341   24340   24343   24344   24342   24340   24343   24346
   24342   24340   24343   24345   24342   24340   24343   24344
   24347   24351   24354   24361   24347   24351   24354   24356
   24347   24351   24354   24355   24348   24347   24351   24354
   24348   24347   24351   24353   24348   24347   24351   24352
   24349   24347   24351   24354   24349   24347   24351   24353
   24349   24347   24351   24352   24350   24347   24351   24354
   24350   24347   24351   24353   24350   24347   24351   24352
   24351   24354   24361   24357   24352   24351   24354   24361
   24352   24351   24354   24356   24352   24351   24354   24355
   24353   24351   24354   24361   24353   24351   24354   24356
   24353   24351   24354   24355   24359   24357   24361   24354
   24358   24357   24361   24354   24360   24357   24361   24354
   24355   24354   24361   24357   24356   24354   24361   24357
   24357   24360   24362   24365   24357   24360   24362   24364
   24357   24360   24362   24363   24358   24357   24360   24362
   24359   24357   24360   24362   24360   24362   24365   24367
   24360   24362   24365   24373   24360   24362   24365   24366
   24361   24357   24360   24362   24362   24365   24367   24368
   24362   24365   24373   24376   24362   24365   24373   24375
   24362   24365   24373   24374   24363   24362   24365   24367
   24363   24362   24365   24373   24363   24362   24365   24366
   24364   24362   24365   24367   24364   24362   24365   24373
   24364   24362   24365   24366   24365   24367   24368   24369
   24365   24367   24368   24370   24365   24373   24376   24377
   24366   24365   24367   24368   24366   24365   24373   24376
   24366   24365   24373   24375   24366   24365   24373   24374
   24367   24368   24370   24382   24367   24368   24370   24372
   24367   24368   24370   24371   24367   24365   24373   24376
   24367   24365   24373   24375   24367   24365   24373   24374
   24368   24370   24382   24385   24368   24370   24382   24384
   24368   24370   24382   24383   24373   24365   24367   24368
   24369   24368   24370   24382   24369   24368   24370   24372
   24369   24368   24370   24371   24370   24382   24385   24388
   24370   24382   24385   24387   24370   24382   24385   24386
   24371   24370   24382   24385   24371   24370   24382   24384
   24371   24370   24382   24383   24372   24370   24382   24385
   24372   24370   24382   24384   24372   24370   24382   24383
   24373   24376   24377   24378   24373   24376   24377   24379
   24374   24373   24376   24377   24375   24373   24376   24377
   24376   24377   24379   24429   24376   24377   24379   24381
   24376   24377   24379   24380   24377   24379   24429   24432
   24377   24379   24429   24431   24377   24379   24429   24430
   24378   24377   24379   24429   24378   24377   24379   24381
   24378   24377   24379   24380   24379   24429   24432   24435
   24379   24429   24432   24434   24379   24429   24432   24433
   24380   24379   24429   24432   24380   24379   24429   24431
   24380   24379   24429   24430   24381   24379   24429   24432
   24381   24379   24429   24431   24381   24379   24429   24430
   24382   24385   24388   24391   24382   24385   24388   24390
   24382   24385   24388   24389   24383   24382   24385   24388
   24383   24382   24385   24387   24383   24382   24385   24386
   24384   24382   24385   24388   24384   24382   24385   24387
   24384   24382   24385   24386   24385   24388   24391   24394
   24385   24388   24391   24393   24385   24388   24391   24392
   24386   24385   24388   24391   24386   24385   24388   24390
   24386   24385   24388   24389   24387   24385   24388   24391
   24387   24385   24388   24390   24387   24385   24388   24389
   24388   24391   24394   24397   24388   24391   24394   24396
   24388   24391   24394   24395   24389   24388   24391   24394
   24389   24388   24391   24393   24389   24388   24391   24392
   24390   24388   24391   24394   24390   24388   24391   24393
   24390   24388   24391   24392   24391   24394   24397   24400
   24391   24394   24397   24399   24391   24394   24397   24398
   24392   24391   24394   24397   24392   24391   24394   24396
   24392   24391   24394   24395   24393   24391   24394   24397
   24393   24391   24394   24396   24393   24391   24394   24395
   24394   24397   24400   24402   24394   24397   24400   24401
   24395   24394   24397   24400   24395   24394   24397   24399
   24395   24394   24397   24398   24396   24394   24397   24400
   24396   24394   24397   24399   24396   24394   24397   24398
   24397   24400   24402   24404   24397   24400   24402   24403
   24398   24397   24400   24402   24398   24397   24400   24401
   24399   24397   24400   24402   24399   24397   24400   24401
   24400   24402   24404   24407   24400   24402   24404   24406
   24400   24402   24404   24405   24401   24400   24402   24404
   24401   24400   24402   24403   24402   24404   24407   24410
   24402   24404   24407   24409   24402   24404   24407   24408
   24403   24402   24404   24407   24403   24402   24404   24406
   24403   24402   24404   24405   24404   24407   24410   24413
   24404   24407   24410   24412   24404   24407   24410   24411
   24405   24404   24407   24410   24405   24404   24407   24409
   24405   24404   24407   24408   24406   24404   24407   24410
   24406   24404   24407   24409   24406   24404   24407   24408
   24407   24410   24413   24416   24407   24410   24413   24415
   24407   24410   24413   24414   24408   24407   24410   24413
   24408   24407   24410   24412   24408   24407   24410   24411
   24409   24407   24410   24413   24409   24407   24410   24412
   24409   24407   24410   24411   24410   24413   24416   24419
   24410   24413   24416   24418   24410   24413   24416   24417
   24411   24410   24413   24416   24411   24410   24413   24415
   24411   24410   24413   24414   24412   24410   24413   24416
   24412   24410   24413   24415   24412   24410   24413   24414
   24413   24416   24419   24422   24413   24416   24419   24421
   24413   24416   24419   24420   24414   24413   24416   24419
   24414   24413   24416   24418   24414   24413   24416   24417
   24415   24413   24416   24419   24415   24413   24416   24418
   24415   24413   24416   24417   24416   24419   24422   24425
   24416   24419   24422   24424   24416   24419   24422   24423
   24417   24416   24419   24422   24417   24416   24419   24421
   24417   24416   24419   24420   24418   24416   24419   24422
   24418   24416   24419   24421   24418   24416   24419   24420
   24419   24422   24425   24428   24419   24422   24425   24427
   24419   24422   24425   24426   24420   24419   24422   24425
   24420   24419   24422   24424   24420   24419   24422   24423
   24421   24419   24422   24425   24421   24419   24422   24424
   24421   24419   24422   24423   24423   24422   24425   24428
   24423   24422   24425   24427   24423   24422   24425   24426
   24424   24422   24425   24428   24424   24422   24425   24427
   24424   24422   24425   24426   24429   24432   24435   24438
   24429   24432   24435   24437   24429   24432   24435   24436
   24430   24429   24432   24435   24430   24429   24432   24434
   24430   24429   24432   24433   24431   24429   24432   24435
   24431   24429   24432   24434   24431   24429   24432   24433
   24432   24435   24438   24441   24432   24435   24438   24440
   24432   24435   24438   24439   24433   24432   24435   24438
   24433   24432   24435   24437   24433   24432   24435   24436
   24434   24432   24435   24438   24434   24432   24435   24437
   24434   24432   24435   24436   24435   24438   24441   24444
   24435   24438   24441   24443   24435   24438   24441   24442
   24436   24435   24438   24441   24436   24435   24438   24440
   24436   24435   24438   24439   24437   24435   24438   24441
   24437   24435   24438   24440   24437   24435   24438   24439
   24438   24441   24444   24447   24438   24441   24444   24446
   24438   24441   24444   24445   24439   24438   24441   24444
   24439   24438   24441   24443   24439   24438   24441   24442
   24440   24438   24441   24444   24440   24438   24441   24443
   24440   24438   24441   24442   24441   24444   24447   24450
   24441   24444   24447   24449   24441   24444   24447   24448
   24442   24441   24444   24447   24442   24441   24444   24446
   24442   24441   24444   24445   24443   24441   24444   24447
   24443   24441   24444   24446   24443   24441   24444   24445
   24444   24447   24450   24453   24444   24447   24450   24452
   24444   24447   24450   24451   24445   24444   24447   24450
   24445   24444   24447   24449   24445   24444   24447   24448
   24446   24444   24447   24450   24446   24444   24447   24449
   24446   24444   24447   24448   24447   24450   24453   24456
   24447   24450   24453   24455   24447   24450   24453   24454
   24448   24447   24450   24453   24448   24447   24450   24452
   24448   24447   24450   24451   24449   24447   24450   24453
   24449   24447   24450   24452   24449   24447   24450   24451
   24450   24453   24456   24459   24450   24453   24456   24458
   24450   24453   24456   24457   24451   24450   24453   24456
   24451   24450   24453   24455   24451   24450   24453   24454
   24452   24450   24453   24456   24452   24450   24453   24455
   24452   24450   24453   24454   24453   24456   24459   24462
   24453   24456   24459   24461   24453   24456   24459   24460
   24454   24453   24456   24459   24454   24453   24456   24458
   24454   24453   24456   24457   24455   24453   24456   24459
   24455   24453   24456   24458   24455   24453   24456   24457
   24456   24459   24462   24465   24456   24459   24462   24464
   24456   24459   24462   24463   24457   24456   24459   24462
   24457   24456   24459   24461   24457   24456   24459   24460
   24458   24456   24459   24462   24458   24456   24459   24461
   24458   24456   24459   24460   24459   24462   24465   24468
   24459   24462   24465   24467   24459   24462   24465   24466
   24460   24459   24462   24465   24460   24459   24462   24464
   24460   24459   24462   24463   24461   24459   24462   24465
   24461   24459   24462   24464   24461   24459   24462   24463
   24462   24465   24468   24471   24462   24465   24468   24470
   24462   24465   24468   24469   24463   24462   24465   24468
   24463   24462   24465   24467   24463   24462   24465   24466
   24464   24462   24465   24468   24464   24462   24465   24467
   24464   24462   24465   24466   24466   24465   24468   24471
   24466   24465   24468   24470   24466   24465   24468   24469
   24467   24465   24468   24471   24467   24465   24468   24470
   24467   24465   24468   24469   24472   24473   24488   24494
   24472   24473   24488   24490   24472   24473   24488   24489
   24473   24488   24494   24491   24473   24472   24484   24487
   24473   24472   24484   24486   24473   24472   24484   24485
   24473   24472   24480   24483   24473   24472   24480   24482
   24473   24472   24480   24481   24473   24472   24476   24479
   24473   24472   24476   24478   24473   24472   24476   24477
   24474   24473   24488   24494   24474   24473   24488   24490
   24474   24473   24488   24489   24484   24472   24473   24474
   24480   24472   24473   24474   24476   24472   24473   24474
   24475   24473   24488   24494   24475   24473   24488   24490
   24475   24473   24488   24489   24484   24472   24473   24475
   24480   24472   24473   24475   24476   24472   24473   24475
   24476   24472   24473   24488   24476   24472   24484   24487
   24476   24472   24484   24486   24476   24472   24484   24485
   24476   24472   24480   24483   24476   24472   24480   24482
   24476   24472   24480   24481   24484   24472   24476   24477
   24480   24472   24476   24477   24484   24472   24476   24478
   24480   24472   24476   24478   24484   24472   24476   24479
   24480   24472   24476   24479   24480   24472   24473   24488
   24480   24472   24484   24487   24480   24472   24484   24486
   24480   24472   24484   24485   24484   24472   24480   24481
   24484   24472   24480   24482   24484   24472   24480   24483
   24484   24472   24473   24488   24493   24491   24494   24488
   24492   24491   24494   24488   24495   24491   24494   24488
   24489   24488   24494   24491   24490   24488   24494   24491
   24491   24495   24496   24499   24491   24495   24496   24498
   24491   24495   24496   24497   24492   24491   24495   24496
   24493   24491   24495   24496   24494   24491   24495   24496
   24495   24496   24499   24501   24495   24496   24499   24507
   24495   24496   24499   24500   24496   24499   24501   24502
   24496   24499   24507   24510   24496   24499   24507   24509
   24496   24499   24507   24508   24497   24496   24499   24501
   24497   24496   24499   24507   24497   24496   24499   24500
   24498   24496   24499   24501   24498   24496   24499   24507
   24498   24496   24499   24500   24499   24501   24502   24503
   24499   24501   24502   24504   24499   24507   24510   24511
   24500   24499   24501   24502   24500   24499   24507   24510
   24500   24499   24507   24509   24500   24499   24507   24508
   24501   24502   24504   24516   24501   24502   24504   24506
   24501   24502   24504   24505   24501   24499   24507   24510
   24501   24499   24507   24509   24501   24499   24507   24508
   24502   24504   24516   24519   24502   24504   24516   24518
   24502   24504   24516   24517   24507   24499   24501   24502
   24503   24502   24504   24516   24503   24502   24504   24506
   24503   24502   24504   24505   24504   24516   24519   24522
   24504   24516   24519   24521   24504   24516   24519   24520
   24505   24504   24516   24519   24505   24504   24516   24518
   24505   24504   24516   24517   24506   24504   24516   24519
   24506   24504   24516   24518   24506   24504   24516   24517
   24507   24510   24511   24512   24507   24510   24511   24513
   24508   24507   24510   24511   24509   24507   24510   24511
   24510   24511   24513   24563   24510   24511   24513   24515
   24510   24511   24513   24514   24511   24513   24563   24566
   24511   24513   24563   24565   24511   24513   24563   24564
   24512   24511   24513   24563   24512   24511   24513   24515
   24512   24511   24513   24514   24513   24563   24566   24569
   24513   24563   24566   24568   24513   24563   24566   24567
   24514   24513   24563   24566   24514   24513   24563   24565
   24514   24513   24563   24564   24515   24513   24563   24566
   24515   24513   24563   24565   24515   24513   24563   24564
   24516   24519   24522   24525   24516   24519   24522   24524
   24516   24519   24522   24523   24517   24516   24519   24522
   24517   24516   24519   24521   24517   24516   24519   24520
   24518   24516   24519   24522   24518   24516   24519   24521
   24518   24516   24519   24520   24519   24522   24525   24528
   24519   24522   24525   24527   24519   24522   24525   24526
   24520   24519   24522   24525   24520   24519   24522   24524
   24520   24519   24522   24523   24521   24519   24522   24525
   24521   24519   24522   24524   24521   24519   24522   24523
   24522   24525   24528   24531   24522   24525   24528   24530
   24522   24525   24528   24529   24523   24522   24525   24528
   24523   24522   24525   24527   24523   24522   24525   24526
   24524   24522   24525   24528   24524   24522   24525   24527
   24524   24522   24525   24526   24525   24528   24531   24534
   24525   24528   24531   24533   24525   24528   24531   24532
   24526   24525   24528   24531   24526   24525   24528   24530
   24526   24525   24528   24529   24527   24525   24528   24531
   24527   24525   24528   24530   24527   24525   24528   24529
   24528   24531   24534   24536   24528   24531   24534   24535
   24529   24528   24531   24534   24529   24528   24531   24533
   24529   24528   24531   24532   24530   24528   24531   24534
   24530   24528   24531   24533   24530   24528   24531   24532
   24531   24534   24536   24538   24531   24534   24536   24537
   24532   24531   24534   24536   24532   24531   24534   24535
   24533   24531   24534   24536   24533   24531   24534   24535
   24534   24536   24538   24541   24534   24536   24538   24540
   24534   24536   24538   24539   24535   24534   24536   24538
   24535   24534   24536   24537   24536   24538   24541   24544
   24536   24538   24541   24543   24536   24538   24541   24542
   24537   24536   24538   24541   24537   24536   24538   24540
   24537   24536   24538   24539   24538   24541   24544   24547
   24538   24541   24544   24546   24538   24541   24544   24545
   24539   24538   24541   24544   24539   24538   24541   24543
   24539   24538   24541   24542   24540   24538   24541   24544
   24540   24538   24541   24543   24540   24538   24541   24542
   24541   24544   24547   24550   24541   24544   24547   24549
   24541   24544   24547   24548   24542   24541   24544   24547
   24542   24541   24544   24546   24542   24541   24544   24545
   24543   24541   24544   24547   24543   24541   24544   24546
   24543   24541   24544   24545   24544   24547   24550   24553
   24544   24547   24550   24552   24544   24547   24550   24551
   24545   24544   24547   24550   24545   24544   24547   24549
   24545   24544   24547   24548   24546   24544   24547   24550
   24546   24544   24547   24549   24546   24544   24547   24548
   24547   24550   24553   24556   24547   24550   24553   24555
   24547   24550   24553   24554   24548   24547   24550   24553
   24548   24547   24550   24552   24548   24547   24550   24551
   24549   24547   24550   24553   24549   24547   24550   24552
   24549   24547   24550   24551   24550   24553   24556   24559
   24550   24553   24556   24558   24550   24553   24556   24557
   24551   24550   24553   24556   24551   24550   24553   24555
   24551   24550   24553   24554   24552   24550   24553   24556
   24552   24550   24553   24555   24552   24550   24553   24554
   24553   24556   24559   24562   24553   24556   24559   24561
   24553   24556   24559   24560   24554   24553   24556   24559
   24554   24553   24556   24558   24554   24553   24556   24557
   24555   24553   24556   24559   24555   24553   24556   24558
   24555   24553   24556   24557   24557   24556   24559   24562
   24557   24556   24559   24561   24557   24556   24559   24560
   24558   24556   24559   24562   24558   24556   24559   24561
   24558   24556   24559   24560   24563   24566   24569   24572
   24563   24566   24569   24571   24563   24566   24569   24570
   24564   24563   24566   24569   24564   24563   24566   24568
   24564   24563   24566   24567   24565   24563   24566   24569
   24565   24563   24566   24568   24565   24563   24566   24567
   24566   24569   24572   24575   24566   24569   24572   24574
   24566   24569   24572   24573   24567   24566   24569   24572
   24567   24566   24569   24571   24567   24566   24569   24570
   24568   24566   24569   24572   24568   24566   24569   24571
   24568   24566   24569   24570   24569   24572   24575   24578
   24569   24572   24575   24577   24569   24572   24575   24576
   24570   24569   24572   24575   24570   24569   24572   24574
   24570   24569   24572   24573   24571   24569   24572   24575
   24571   24569   24572   24574   24571   24569   24572   24573
   24572   24575   24578   24581   24572   24575   24578   24580
   24572   24575   24578   24579   24573   24572   24575   24578
   24573   24572   24575   24577   24573   24572   24575   24576
   24574   24572   24575   24578   24574   24572   24575   24577
   24574   24572   24575   24576   24575   24578   24581   24584
   24575   24578   24581   24583   24575   24578   24581   24582
   24576   24575   24578   24581   24576   24575   24578   24580
   24576   24575   24578   24579   24577   24575   24578   24581
   24577   24575   24578   24580   24577   24575   24578   24579
   24578   24581   24584   24587   24578   24581   24584   24586
   24578   24581   24584   24585   24579   24578   24581   24584
   24579   24578   24581   24583   24579   24578   24581   24582
   24580   24578   24581   24584   24580   24578   24581   24583
   24580   24578   24581   24582   24581   24584   24587   24590
   24581   24584   24587   24589   24581   24584   24587   24588
   24582   24581   24584   24587   24582   24581   24584   24586
   24582   24581   24584   24585   24583   24581   24584   24587
   24583   24581   24584   24586   24583   24581   24584   24585
   24584   24587   24590   24593   24584   24587   24590   24592
   24584   24587   24590   24591   24585   24584   24587   24590
   24585   24584   24587   24589   24585   24584   24587   24588
   24586   24584   24587   24590   24586   24584   24587   24589
   24586   24584   24587   24588   24587   24590   24593   24596
   24587   24590   24593   24595   24587   24590   24593   24594
   24588   24587   24590   24593   24588   24587   24590   24592
   24588   24587   24590   24591   24589   24587   24590   24593
   24589   24587   24590   24592   24589   24587   24590   24591
   24590   24593   24596   24599   24590   24593   24596   24598
   24590   24593   24596   24597   24591   24590   24593   24596
   24591   24590   24593   24595   24591   24590   24593   24594
   24592   24590   24593   24596   24592   24590   24593   24595
   24592   24590   24593   24594   24593   24596   24599   24602
   24593   24596   24599   24601   24593   24596   24599   24600
   24594   24593   24596   24599   24594   24593   24596   24598
   24594   24593   24596   24597   24595   24593   24596   24599
   24595   24593   24596   24598   24595   24593   24596   24597
   24596   24599   24602   24605   24596   24599   24602   24604
   24596   24599   24602   24603   24597   24596   24599   24602
   24597   24596   24599   24601   24597   24596   24599   24600
   24598   24596   24599   24602   24598   24596   24599   24601
   24598   24596   24599   24600   24600   24599   24602   24605
   24600   24599   24602   24604   24600   24599   24602   24603
   24601   24599   24602   24605   24601   24599   24602   24604
   24601   24599   24602   24603   24606   24619   24622   24624
   24606   24619   24622   24623   24606   24619   24622   24629
   24607   24606   24611   24614   24607   24606   24611   24613
   24607   24606   24611   24612   24607   24606   24615   24618
   24607   24606   24615   24617   24607   24606   24615   24616
   24607   24606   24619   24621   24607   24606   24619   24620
   24607   24606   24619   24622   24611   24606   24607   24608
   24615   24606   24607   24608   24619   24606   24607   24608
   24611   24606   24607   24609   24615   24606   24607   24609
   24619   24606   24607   24609   24611   24606   24607   24610
   24615   24606   24607   24610   24619   24606   24607   24610
   24611   24606   24615   24618   24611   24606   24615   24617
   24611   24606   24615   24616   24611   24606   24619   24621
   24611   24606   24619   24620   24611   24606   24619   24622
   24615   24606   24611   24612   24619   24606   24611   24612
   24615   24606   24611   24613   24619   24606   24611   24613
   24615   24606   24611   24614   24619   24606   24611   24614
   24615   24606   24619   24621   24615   24606   24619   24620
   24615   24606   24619   24622   24619   24606   24615   24616
   24619   24606   24615   24617   24619   24606   24615   24618
   24619   24622   24629   24625   24620   24619   24622   24624
   24620   24619   24622   24623   24620   24619   24622   24629
   24621   24619   24622   24624   24621   24619   24622   24623
   24621   24619   24622   24629   24627   24625   24629   24622
   24626   24625   24629   24622   24628   24625   24629   24622
   24623   24622   24629   24625   24624   24622   24629   24625
   24625   24628   24630   24632   24625   24628   24630   24631
   24625   24628   24630   24635   24626   24625   24628   24630
   24627   24625   24628   24630   24628   24630   24635   24633
   24628   24630   24635   24636   24628   24630   24635   24637
   24629   24625   24628   24630   24685   24633   24635   24630
   24634   24633   24635   24630   24630   24635   24637   24639
   24630   24635   24637   24638   24630   24635   24637   24641
   24631   24630   24635   24633   24631   24630   24635   24636
   24631   24630   24635   24637   24632   24630   24635   24633
   24632   24630   24635   24636   24632   24630   24635   24637
   24633   24685   24687   24690   24633   24685   24687   24689
   24633   24685   24687   24688   24633   24635   24637   24639
   24633   24635   24637   24638   24633   24635   24637   24641
   24634   24633   24685   24686   24634   24633   24685   24687
   24634   24633   24635   24636   24634   24633   24635   24637
   24635   24633   24685   24686   24635   24633   24685   24687
   24635   24637   24639   24640   24635   24637   24641   24643
   24635   24637   24641   24642   24685   24633   24635   24636
   24636   24635   24637   24639   24636   24635   24637   24638
   24636   24635   24637   24641   24685   24633   24635   24637
   24637   24641   24643   24644   24637   24641   24643   24645
   24638   24637   24639   24640   24638   24637   24641   24643
   24638   24637   24641   24642   24639   24637   24641   24643
   24639   24637   24641   24642   24641   24637   24639   24640
   24641   24643   24645   24647   24641   24643   24645   24646
   24641   24643   24645   24648   24642   24641   24643   24644
   24642   24641   24643   24645   24643   24645   24648   24650
   24643   24645   24648   24649   24643   24645   24648   24651
   24644   24643   24645   24647   24644   24643   24645   24646
   24644   24643   24645   24648   24645   24648   24651   24653
   24645   24648   24651   24652   24645   24648   24651   24654
   24646   24645   24648   24650   24646   24645   24648   24649
   24646   24645   24648   24651   24647   24645   24648   24650
   24647   24645   24648   24649   24647   24645   24648   24651
   24648   24651   24654   24656   24648   24651   24654   24655
   24648   24651   24654   24657   24649   24648   24651   24653
   24649   24648   24651   24652   24649   24648   24651   24654
   24650   24648   24651   24653   24650   24648   24651   24652
   24650   24648   24651   24654   24651   24654   24657   24659
   24651   24654   24657   24658   24651   24654   24657   24660
   24652   24651   24654   24656   24652   24651   24654   24655
   24652   24651   24654   24657   24653   24651   24654   24656
   24653   24651   24654   24655   24653   24651   24654   24657
   24654   24657   24660   24662   24654   24657   24660   24661
   24654   24657   24660   24663   24655   24654   24657   24659
   24655   24654   24657   24658   24655   24654   24657   24660
   24656   24654   24657   24659   24656   24654   24657   24658
   24656   24654   24657   24660   24657   24660   24663   24665
   24657   24660   24663   24664   24657   24660   24663   24666
   24658   24657   24660   24662   24658   24657   24660   24661
   24658   24657   24660   24663   24659   24657   24660   24662
   24659   24657   24660   24661   24659   24657   24660   24663
   24660   24663   24666   24668   24660   24663   24666   24667
   24660   24663   24666   24669   24661   24660   24663   24665
   24661   24660   24663   24664   24661   24660   24663   24666
   24662   24660   24663   24665   24662   24660   24663   24664
   24662   24660   24663   24666   24663   24666   24669   24671
   24663   24666   24669   24670   24663   24666   24669   24672
   24664   24663   24666   24668   24664   24663   24666   24667
   24664   24663   24666   24669   24665   24663   24666   24668
   24665   24663   24666   24667   24665   24663   24666   24669
   24666   24669   24672   24674   24666   24669   24672   24673
   24666   24669   24672   24675   24667   24666   24669   24671
   24667   24666   24669   24670   24667   24666   24669   24672
   24668   24666   24669   24671   24668   24666   24669   24670
   24668   24666   24669   24672   24669   24672   24675   24677
   24669   24672   24675   24676   24669   24672   24675   24678
   24670   24669   24672   24674   24670   24669   24672   24673
   24670   24669   24672   24675   24671   24669   24672   24674
   24671   24669   24672   24673   24671   24669   24672   24675
   24672   24675   24678   24680   24672   24675   24678   24679
   24672   24675   24678   24681   24673   24672   24675   24677
   24673   24672   24675   24676   24673   24672   24675   24678
   24674   24672   24675   24677   24674   24672   24675   24676
   24674   24672   24675   24678   24675   24678   24681   24684
   24675   24678   24681   24683   24675   24678   24681   24682
   24676   24675   24678   24680   24676   24675   24678   24679
   24676   24675   24678   24681   24677   24675   24678   24680
   24677   24675   24678   24679   24677   24675   24678   24681
   24679   24678   24681   24684   24679   24678   24681   24683
   24679   24678   24681   24682   24680   24678   24681   24684
   24680   24678   24681   24683   24680   24678   24681   24682
   24685   24687   24690   24693   24685   24687   24690   24692
   24685   24687   24690   24691   24686   24685   24687   24690
   24686   24685   24687   24689   24686   24685   24687   24688
   24687   24690   24693   24696   24687   24690   24693   24695
   24687   24690   24693   24694   24688   24687   24690   24693
   24688   24687   24690   24692   24688   24687   24690   24691
   24689   24687   24690   24693   24689   24687   24690   24692
   24689   24687   24690   24691   24690   24693   24696   24699
   24690   24693   24696   24698   24690   24693   24696   24697
   24691   24690   24693   24696   24691   24690   24693   24695
   24691   24690   24693   24694   24692   24690   24693   24696
   24692   24690   24693   24695   24692   24690   24693   24694
   24693   24696   24699   24702   24693   24696   24699   24701
   24693   24696   24699   24700   24694   24693   24696   24699
   24694   24693   24696   24698   24694   24693   24696   24697
   24695   24693   24696   24699   24695   24693   24696   24698
   24695   24693   24696   24697   24696   24699   24702   24705
   24696   24699   24702   24704   24696   24699   24702   24703
   24697   24696   24699   24702   24697   24696   24699   24701
   24697   24696   24699   24700   24698   24696   24699   24702
   24698   24696   24699   24701   24698   24696   24699   24700
   24699   24702   24705   24708   24699   24702   24705   24707
   24699   24702   24705   24706   24700   24699   24702   24705
   24700   24699   24702   24704   24700   24699   24702   24703
   24701   24699   24702   24705   24701   24699   24702   24704
   24701   24699   24702   24703   24702   24705   24708   24711
   24702   24705   24708   24710   24702   24705   24708   24709
   24703   24702   24705   24708   24703   24702   24705   24707
   24703   24702   24705   24706   24704   24702   24705   24708
   24704   24702   24705   24707   24704   24702   24705   24706
   24705   24708   24711   24714   24705   24708   24711   24713
   24705   24708   24711   24712   24706   24705   24708   24711
   24706   24705   24708   24710   24706   24705   24708   24709
   24707   24705   24708   24711   24707   24705   24708   24710
   24707   24705   24708   24709   24708   24711   24714   24717
   24708   24711   24714   24716   24708   24711   24714   24715
   24709   24708   24711   24714   24709   24708   24711   24713
   24709   24708   24711   24712   24710   24708   24711   24714
   24710   24708   24711   24713   24710   24708   24711   24712
   24711   24714   24717   24720   24711   24714   24717   24719
   24711   24714   24717   24718   24712   24711   24714   24717
   24712   24711   24714   24716   24712   24711   24714   24715
   24713   24711   24714   24717   24713   24711   24714   24716
   24713   24711   24714   24715   24714   24717   24720   24723
   24714   24717   24720   24722   24714   24717   24720   24721
   24715   24714   24717   24720   24715   24714   24717   24719
   24715   24714   24717   24718   24716   24714   24717   24720
   24716   24714   24717   24719   24716   24714   24717   24718
   24717   24720   24723   24726   24717   24720   24723   24725
   24717   24720   24723   24724   24718   24717   24720   24723
   24718   24717   24720   24722   24718   24717   24720   24721
   24719   24717   24720   24723   24719   24717   24720   24722
   24719   24717   24720   24721   24720   24723   24726   24729
   24720   24723   24726   24728   24720   24723   24726   24727
   24721   24720   24723   24726   24721   24720   24723   24725
   24721   24720   24723   24724   24722   24720   24723   24726
   24722   24720   24723   24725   24722   24720   24723   24724
   24723   24726   24729   24732   24723   24726   24729   24731
   24723   24726   24729   24730   24724   24723   24726   24729
   24724   24723   24726   24728   24724   24723   24726   24727
   24725   24723   24726   24729   24725   24723   24726   24728
   24725   24723   24726   24727   24727   24726   24729   24732
   24727   24726   24729   24731   24727   24726   24729   24730
   24728   24726   24729   24732   24728   24726   24729   24731
   24728   24726   24729   24730   24733   24734   24749   24755
   24733   24734   24749   24751   24733   24734   24749   24750
   24734   24749   24755   24752   24734   24733   24745   24748
   24734   24733   24745   24747   24734   24733   24745   24746
   24734   24733   24741   24744   24734   24733   24741   24743
   24734   24733   24741   24742   24734   24733   24737   24740
   24734   24733   24737   24739   24734   24733   24737   24738
   24735   24734   24749   24755   24735   24734   24749   24751
   24735   24734   24749   24750   24745   24733   24734   24735
   24741   24733   24734   24735   24737   24733   24734   24735
   24736   24734   24749   24755   24736   24734   24749   24751
   24736   24734   24749   24750   24745   24733   24734   24736
   24741   24733   24734   24736   24737   24733   24734   24736
   24737   24733   24734   24749   24737   24733   24745   24748
   24737   24733   24745   24747   24737   24733   24745   24746
   24737   24733   24741   24744   24737   24733   24741   24743
   24737   24733   24741   24742   24745   24733   24737   24738
   24741   24733   24737   24738   24745   24733   24737   24739
   24741   24733   24737   24739   24745   24733   24737   24740
   24741   24733   24737   24740   24741   24733   24734   24749
   24741   24733   24745   24748   24741   24733   24745   24747
   24741   24733   24745   24746   24745   24733   24741   24742
   24745   24733   24741   24743   24745   24733   24741   24744
   24745   24733   24734   24749   24754   24752   24755   24749
   24753   24752   24755   24749   24756   24752   24755   24749
   24750   24749   24755   24752   24751   24749   24755   24752
   24752   24756   24757   24760   24752   24756   24757   24759
   24752   24756   24757   24758   24753   24752   24756   24757
   24754   24752   24756   24757   24755   24752   24756   24757
   24756   24757   24760   24762   24756   24757   24760   24768
   24756   24757   24760   24761   24757   24760   24762   24763
   24757   24760   24768   24771   24757   24760   24768   24770
   24757   24760   24768   24769   24758   24757   24760   24762
   24758   24757   24760   24768   24758   24757   24760   24761
   24759   24757   24760   24762   24759   24757   24760   24768
   24759   24757   24760   24761   24760   24762   24763   24764
   24760   24762   24763   24765   24760   24768   24771   24772
   24761   24760   24762   24763   24761   24760   24768   24771
   24761   24760   24768   24770   24761   24760   24768   24769
   24762   24763   24765   24777   24762   24763   24765   24767
   24762   24763   24765   24766   24762   24760   24768   24771
   24762   24760   24768   24770   24762   24760   24768   24769
   24763   24765   24777   24780   24763   24765   24777   24779
   24763   24765   24777   24778   24768   24760   24762   24763
   24764   24763   24765   24777   24764   24763   24765   24767
   24764   24763   24765   24766   24765   24777   24780   24783
   24765   24777   24780   24782   24765   24777   24780   24781
   24766   24765   24777   24780   24766   24765   24777   24779
   24766   24765   24777   24778   24767   24765   24777   24780
   24767   24765   24777   24779   24767   24765   24777   24778
   24768   24771   24772   24773   24768   24771   24772   24774
   24769   24768   24771   24772   24770   24768   24771   24772
   24771   24772   24774   24824   24771   24772   24774   24776
   24771   24772   24774   24775   24772   24774   24824   24827
   24772   24774   24824   24826   24772   24774   24824   24825
   24773   24772   24774   24824   24773   24772   24774   24776
   24773   24772   24774   24775   24774   24824   24827   24830
   24774   24824   24827   24829   24774   24824   24827   24828
   24775   24774   24824   24827   24775   24774   24824   24826
   24775   24774   24824   24825   24776   24774   24824   24827
   24776   24774   24824   24826   24776   24774   24824   24825
   24777   24780   24783   24786   24777   24780   24783   24785
   24777   24780   24783   24784   24778   24777   24780   24783
   24778   24777   24780   24782   24778   24777   24780   24781
   24779   24777   24780   24783   24779   24777   24780   24782
   24779   24777   24780   24781   24780   24783   24786   24789
   24780   24783   24786   24788   24780   24783   24786   24787
   24781   24780   24783   24786   24781   24780   24783   24785
   24781   24780   24783   24784   24782   24780   24783   24786
   24782   24780   24783   24785   24782   24780   24783   24784
   24783   24786   24789   24792   24783   24786   24789   24791
   24783   24786   24789   24790   24784   24783   24786   24789
   24784   24783   24786   24788   24784   24783   24786   24787
   24785   24783   24786   24789   24785   24783   24786   24788
   24785   24783   24786   24787   24786   24789   24792   24795
   24786   24789   24792   24794   24786   24789   24792   24793
   24787   24786   24789   24792   24787   24786   24789   24791
   24787   24786   24789   24790   24788   24786   24789   24792
   24788   24786   24789   24791   24788   24786   24789   24790
   24789   24792   24795   24797   24789   24792   24795   24796
   24790   24789   24792   24795   24790   24789   24792   24794
   24790   24789   24792   24793   24791   24789   24792   24795
   24791   24789   24792   24794   24791   24789   24792   24793
   24792   24795   24797   24799   24792   24795   24797   24798
   24793   24792   24795   24797   24793   24792   24795   24796
   24794   24792   24795   24797   24794   24792   24795   24796
   24795   24797   24799   24802   24795   24797   24799   24801
   24795   24797   24799   24800   24796   24795   24797   24799
   24796   24795   24797   24798   24797   24799   24802   24805
   24797   24799   24802   24804   24797   24799   24802   24803
   24798   24797   24799   24802   24798   24797   24799   24801
   24798   24797   24799   24800   24799   24802   24805   24808
   24799   24802   24805   24807   24799   24802   24805   24806
   24800   24799   24802   24805   24800   24799   24802   24804
   24800   24799   24802   24803   24801   24799   24802   24805
   24801   24799   24802   24804   24801   24799   24802   24803
   24802   24805   24808   24811   24802   24805   24808   24810
   24802   24805   24808   24809   24803   24802   24805   24808
   24803   24802   24805   24807   24803   24802   24805   24806
   24804   24802   24805   24808   24804   24802   24805   24807
   24804   24802   24805   24806   24805   24808   24811   24814
   24805   24808   24811   24813   24805   24808   24811   24812
   24806   24805   24808   24811   24806   24805   24808   24810
   24806   24805   24808   24809   24807   24805   24808   24811
   24807   24805   24808   24810   24807   24805   24808   24809
   24808   24811   24814   24817   24808   24811   24814   24816
   24808   24811   24814   24815   24809   24808   24811   24814
   24809   24808   24811   24813   24809   24808   24811   24812
   24810   24808   24811   24814   24810   24808   24811   24813
   24810   24808   24811   24812   24811   24814   24817   24820
   24811   24814   24817   24819   24811   24814   24817   24818
   24812   24811   24814   24817   24812   24811   24814   24816
   24812   24811   24814   24815   24813   24811   24814   24817
   24813   24811   24814   24816   24813   24811   24814   24815
   24814   24817   24820   24823   24814   24817   24820   24822
   24814   24817   24820   24821   24815   24814   24817   24820
   24815   24814   24817   24819   24815   24814   24817   24818
   24816   24814   24817   24820   24816   24814   24817   24819
   24816   24814   24817   24818   24818   24817   24820   24823
   24818   24817   24820   24822   24818   24817   24820   24821
   24819   24817   24820   24823   24819   24817   24820   24822
   24819   24817   24820   24821   24824   24827   24830   24833
   24824   24827   24830   24832   24824   24827   24830   24831
   24825   24824   24827   24830   24825   24824   24827   24829
   24825   24824   24827   24828   24826   24824   24827   24830
   24826   24824   24827   24829   24826   24824   24827   24828
   24827   24830   24833   24836   24827   24830   24833   24835
   24827   24830   24833   24834   24828   24827   24830   24833
   24828   24827   24830   24832   24828   24827   24830   24831
   24829   24827   24830   24833   24829   24827   24830   24832
   24829   24827   24830   24831   24830   24833   24836   24839
   24830   24833   24836   24838   24830   24833   24836   24837
   24831   24830   24833   24836   24831   24830   24833   24835
   24831   24830   24833   24834   24832   24830   24833   24836
   24832   24830   24833   24835   24832   24830   24833   24834
   24833   24836   24839   24842   24833   24836   24839   24841
   24833   24836   24839   24840   24834   24833   24836   24839
   24834   24833   24836   24838   24834   24833   24836   24837
   24835   24833   24836   24839   24835   24833   24836   24838
   24835   24833   24836   24837   24836   24839   24842   24845
   24836   24839   24842   24844   24836   24839   24842   24843
   24837   24836   24839   24842   24837   24836   24839   24841
   24837   24836   24839   24840   24838   24836   24839   24842
   24838   24836   24839   24841   24838   24836   24839   24840
   24839   24842   24845   24848   24839   24842   24845   24847
   24839   24842   24845   24846   24840   24839   24842   24845
   24840   24839   24842   24844   24840   24839   24842   24843
   24841   24839   24842   24845   24841   24839   24842   24844
   24841   24839   24842   24843   24842   24845   24848   24851
   24842   24845   24848   24850   24842   24845   24848   24849
   24843   24842   24845   24848   24843   24842   24845   24847
   24843   24842   24845   24846   24844   24842   24845   24848
   24844   24842   24845   24847   24844   24842   24845   24846
   24845   24848   24851   24854   24845   24848   24851   24853
   24845   24848   24851   24852   24846   24845   24848   24851
   24846   24845   24848   24850   24846   24845   24848   24849
   24847   24845   24848   24851   24847   24845   24848   24850
   24847   24845   24848   24849   24848   24851   24854   24857
   24848   24851   24854   24856   24848   24851   24854   24855
   24849   24848   24851   24854   24849   24848   24851   24853
   24849   24848   24851   24852   24850   24848   24851   24854
   24850   24848   24851   24853   24850   24848   24851   24852
   24851   24854   24857   24860   24851   24854   24857   24859
   24851   24854   24857   24858   24852   24851   24854   24857
   24852   24851   24854   24856   24852   24851   24854   24855
   24853   24851   24854   24857   24853   24851   24854   24856
   24853   24851   24854   24855   24854   24857   24860   24863
   24854   24857   24860   24862   24854   24857   24860   24861
   24855   24854   24857   24860   24855   24854   24857   24859
   24855   24854   24857   24858   24856   24854   24857   24860
   24856   24854   24857   24859   24856   24854   24857   24858
   24857   24860   24863   24866   24857   24860   24863   24865
   24857   24860   24863   24864   24858   24857   24860   24863
   24858   24857   24860   24862   24858   24857   24860   24861
   24859   24857   24860   24863   24859   24857   24860   24862
   24859   24857   24860   24861   24861   24860   24863   24866
   24861   24860   24863   24865   24861   24860   24863   24864
   24862   24860   24863   24866   24862   24860   24863   24865
   24862   24860   24863   24864   24867   24871   24874   24881
   24867   24871   24874   24876   24867   24871   24874   24875
   24868   24867   24871   24874   24868   24867   24871   24873
   24868   24867   24871   24872   24869   24867   24871   24874
   24869   24867   24871   24873   24869   24867   24871   24872
   24870   24867   24871   24874   24870   24867   24871   24873
   24870   24867   24871   24872   24871   24874   24881   24877
   24872   24871   24874   24881   24872   24871   24874   24876
   24872   24871   24874   24875   24873   24871   24874   24881
   24873   24871   24874   24876   24873   24871   24874   24875
   24879   24877   24881   24874   24878   24877   24881   24874
   24880   24877   24881   24874   24875   24874   24881   24877
   24876   24874   24881   24877   24877   24880   24882   24885
   24877   24880   24882   24884   24877   24880   24882   24883
   24878   24877   24880   24882   24879   24877   24880   24882
   24880   24882   24885   24887   24880   24882   24885   24893
   24880   24882   24885   24886   24881   24877   24880   24882
   24882   24885   24887   24888   24882   24885   24893   24896
   24882   24885   24893   24895   24882   24885   24893   24894
   24883   24882   24885   24887   24883   24882   24885   24893
   24883   24882   24885   24886   24884   24882   24885   24887
   24884   24882   24885   24893   24884   24882   24885   24886
   24885   24887   24888   24889   24885   24887   24888   24890
   24885   24893   24896   24897   24886   24885   24887   24888
   24886   24885   24893   24896   24886   24885   24893   24895
   24886   24885   24893   24894   24887   24888   24890   24902
   24887   24888   24890   24892   24887   24888   24890   24891
   24887   24885   24893   24896   24887   24885   24893   24895
   24887   24885   24893   24894   24888   24890   24902   24905
   24888   24890   24902   24904   24888   24890   24902   24903
   24893   24885   24887   24888   24889   24888   24890   24902
   24889   24888   24890   24892   24889   24888   24890   24891
   24890   24902   24905   24908   24890   24902   24905   24907
   24890   24902   24905   24906   24891   24890   24902   24905
   24891   24890   24902   24904   24891   24890   24902   24903
   24892   24890   24902   24905   24892   24890   24902   24904
   24892   24890   24902   24903   24893   24896   24897   24898
   24893   24896   24897   24899   24894   24893   24896   24897
   24895   24893   24896   24897   24896   24897   24899   24949
   24896   24897   24899   24901   24896   24897   24899   24900
   24897   24899   24949   24952   24897   24899   24949   24951
   24897   24899   24949   24950   24898   24897   24899   24949
   24898   24897   24899   24901   24898   24897   24899   24900
   24899   24949   24952   24955   24899   24949   24952   24954
   24899   24949   24952   24953   24900   24899   24949   24952
   24900   24899   24949   24951   24900   24899   24949   24950
   24901   24899   24949   24952   24901   24899   24949   24951
   24901   24899   24949   24950   24902   24905   24908   24911
   24902   24905   24908   24910   24902   24905   24908   24909
   24903   24902   24905   24908   24903   24902   24905   24907
   24903   24902   24905   24906   24904   24902   24905   24908
   24904   24902   24905   24907   24904   24902   24905   24906
   24905   24908   24911   24914   24905   24908   24911   24913
   24905   24908   24911   24912   24906   24905   24908   24911
   24906   24905   24908   24910   24906   24905   24908   24909
   24907   24905   24908   24911   24907   24905   24908   24910
   24907   24905   24908   24909   24908   24911   24914   24917
   24908   24911   24914   24916   24908   24911   24914   24915
   24909   24908   24911   24914   24909   24908   24911   24913
   24909   24908   24911   24912   24910   24908   24911   24914
   24910   24908   24911   24913   24910   24908   24911   24912
   24911   24914   24917   24920   24911   24914   24917   24919
   24911   24914   24917   24918   24912   24911   24914   24917
   24912   24911   24914   24916   24912   24911   24914   24915
   24913   24911   24914   24917   24913   24911   24914   24916
   24913   24911   24914   24915   24914   24917   24920   24922
   24914   24917   24920   24921   24915   24914   24917   24920
   24915   24914   24917   24919   24915   24914   24917   24918
   24916   24914   24917   24920   24916   24914   24917   24919
   24916   24914   24917   24918   24917   24920   24922   24924
   24917   24920   24922   24923   24918   24917   24920   24922
   24918   24917   24920   24921   24919   24917   24920   24922
   24919   24917   24920   24921   24920   24922   24924   24927
   24920   24922   24924   24926   24920   24922   24924   24925
   24921   24920   24922   24924   24921   24920   24922   24923
   24922   24924   24927   24930   24922   24924   24927   24929
   24922   24924   24927   24928   24923   24922   24924   24927
   24923   24922   24924   24926   24923   24922   24924   24925
   24924   24927   24930   24933   24924   24927   24930   24932
   24924   24927   24930   24931   24925   24924   24927   24930
   24925   24924   24927   24929   24925   24924   24927   24928
   24926   24924   24927   24930   24926   24924   24927   24929
   24926   24924   24927   24928   24927   24930   24933   24936
   24927   24930   24933   24935   24927   24930   24933   24934
   24928   24927   24930   24933   24928   24927   24930   24932
   24928   24927   24930   24931   24929   24927   24930   24933
   24929   24927   24930   24932   24929   24927   24930   24931
   24930   24933   24936   24939   24930   24933   24936   24938
   24930   24933   24936   24937   24931   24930   24933   24936
   24931   24930   24933   24935   24931   24930   24933   24934
   24932   24930   24933   24936   24932   24930   24933   24935
   24932   24930   24933   24934   24933   24936   24939   24942
   24933   24936   24939   24941   24933   24936   24939   24940
   24934   24933   24936   24939   24934   24933   24936   24938
   24934   24933   24936   24937   24935   24933   24936   24939
   24935   24933   24936   24938   24935   24933   24936   24937
   24936   24939   24942   24945   24936   24939   24942   24944
   24936   24939   24942   24943   24937   24936   24939   24942
   24937   24936   24939   24941   24937   24936   24939   24940
   24938   24936   24939   24942   24938   24936   24939   24941
   24938   24936   24939   24940   24939   24942   24945   24948
   24939   24942   24945   24947   24939   24942   24945   24946
   24940   24939   24942   24945   24940   24939   24942   24944
   24940   24939   24942   24943   24941   24939   24942   24945
   24941   24939   24942   24944   24941   24939   24942   24943
   24943   24942   24945   24948   24943   24942   24945   24947
   24943   24942   24945   24946   24944   24942   24945   24948
   24944   24942   24945   24947   24944   24942   24945   24946
   24949   24952   24955   24958   24949   24952   24955   24957
   24949   24952   24955   24956   24950   24949   24952   24955
   24950   24949   24952   24954   24950   24949   24952   24953
   24951   24949   24952   24955   24951   24949   24952   24954
   24951   24949   24952   24953   24952   24955   24958   24961
   24952   24955   24958   24960   24952   24955   24958   24959
   24953   24952   24955   24958   24953   24952   24955   24957
   24953   24952   24955   24956   24954   24952   24955   24958
   24954   24952   24955   24957   24954   24952   24955   24956
   24955   24958   24961   24964   24955   24958   24961   24963
   24955   24958   24961   24962   24956   24955   24958   24961
   24956   24955   24958   24960   24956   24955   24958   24959
   24957   24955   24958   24961   24957   24955   24958   24960
   24957   24955   24958   24959   24958   24961   24964   24967
   24958   24961   24964   24966   24958   24961   24964   24965
   24959   24958   24961   24964   24959   24958   24961   24963
   24959   24958   24961   24962   24960   24958   24961   24964
   24960   24958   24961   24963   24960   24958   24961   24962
   24961   24964   24967   24970   24961   24964   24967   24969
   24961   24964   24967   24968   24962   24961   24964   24967
   24962   24961   24964   24966   24962   24961   24964   24965
   24963   24961   24964   24967   24963   24961   24964   24966
   24963   24961   24964   24965   24964   24967   24970   24973
   24964   24967   24970   24972   24964   24967   24970   24971
   24965   24964   24967   24970   24965   24964   24967   24969
   24965   24964   24967   24968   24966   24964   24967   24970
   24966   24964   24967   24969   24966   24964   24967   24968
   24967   24970   24973   24976   24967   24970   24973   24975
   24967   24970   24973   24974   24968   24967   24970   24973
   24968   24967   24970   24972   24968   24967   24970   24971
   24969   24967   24970   24973   24969   24967   24970   24972
   24969   24967   24970   24971   24970   24973   24976   24979
   24970   24973   24976   24978   24970   24973   24976   24977
   24971   24970   24973   24976   24971   24970   24973   24975
   24971   24970   24973   24974   24972   24970   24973   24976
   24972   24970   24973   24975   24972   24970   24973   24974
   24973   24976   24979   24982   24973   24976   24979   24981
   24973   24976   24979   24980   24974   24973   24976   24979
   24974   24973   24976   24978   24974   24973   24976   24977
   24975   24973   24976   24979   24975   24973   24976   24978
   24975   24973   24976   24977   24976   24979   24982   24985
   24976   24979   24982   24984   24976   24979   24982   24983
   24977   24976   24979   24982   24977   24976   24979   24981
   24977   24976   24979   24980   24978   24976   24979   24982
   24978   24976   24979   24981   24978   24976   24979   24980
   24979   24982   24985   24988   24979   24982   24985   24987
   24979   24982   24985   24986   24980   24979   24982   24985
   24980   24979   24982   24984   24980   24979   24982   24983
   24981   24979   24982   24985   24981   24979   24982   24984
   24981   24979   24982   24983   24982   24985   24988   24991
   24982   24985   24988   24990   24982   24985   24988   24989
   24983   24982   24985   24988   24983   24982   24985   24987
   24983   24982   24985   24986   24984   24982   24985   24988
   24984   24982   24985   24987   24984   24982   24985   24986
   24986   24985   24988   24991   24986   24985   24988   24990
   24986   24985   24988   24989   24987   24985   24988   24991
   24987   24985   24988   24990   24987   24985   24988   24989
   24992   24996   24999   25006   24992   24996   24999   25001
   24992   24996   24999   25000   24993   24992   24996   24999
   24993   24992   24996   24998   24993   24992   24996   24997
   24994   24992   24996   24999   24994   24992   24996   24998
   24994   24992   24996   24997   24995   24992   24996   24999
   24995   24992   24996   24998   24995   24992   24996   24997
   24996   24999   25006   25002   24997   24996   24999   25006
   24997   24996   24999   25001   24997   24996   24999   25000
   24998   24996   24999   25006   24998   24996   24999   25001
   24998   24996   24999   25000   25004   25002   25006   24999
   25003   25002   25006   24999   25005   25002   25006   24999
   25000   24999   25006   25002   25001   24999   25006   25002
   25002   25005   25007   25010   25002   25005   25007   25009
   25002   25005   25007   25008   25003   25002   25005   25007
   25004   25002   25005   25007   25005   25007   25010   25012
   25005   25007   25010   25018   25005   25007   25010   25011
   25006   25002   25005   25007   25007   25010   25012   25013
   25007   25010   25018   25021   25007   25010   25018   25020
   25007   25010   25018   25019   25008   25007   25010   25012
   25008   25007   25010   25018   25008   25007   25010   25011
   25009   25007   25010   25012   25009   25007   25010   25018
   25009   25007   25010   25011   25010   25012   25013   25014
   25010   25012   25013   25015   25010   25018   25021   25022
   25011   25010   25012   25013   25011   25010   25018   25021
   25011   25010   25018   25020   25011   25010   25018   25019
   25012   25013   25015   25027   25012   25013   25015   25017
   25012   25013   25015   25016   25012   25010   25018   25021
   25012   25010   25018   25020   25012   25010   25018   25019
   25013   25015   25027   25030   25013   25015   25027   25029
   25013   25015   25027   25028   25018   25010   25012   25013
   25014   25013   25015   25027   25014   25013   25015   25017
   25014   25013   25015   25016   25015   25027   25030   25033
   25015   25027   25030   25032   25015   25027   25030   25031
   25016   25015   25027   25030   25016   25015   25027   25029
   25016   25015   25027   25028   25017   25015   25027   25030
   25017   25015   25027   25029   25017   25015   25027   25028
   25018   25021   25022   25023   25018   25021   25022   25024
   25019   25018   25021   25022   25020   25018   25021   25022
   25021   25022   25024   25074   25021   25022   25024   25026
   25021   25022   25024   25025   25022   25024   25074   25077
   25022   25024   25074   25076   25022   25024   25074   25075
   25023   25022   25024   25074   25023   25022   25024   25026
   25023   25022   25024   25025   25024   25074   25077   25080
   25024   25074   25077   25079   25024   25074   25077   25078
   25025   25024   25074   25077   25025   25024   25074   25076
   25025   25024   25074   25075   25026   25024   25074   25077
   25026   25024   25074   25076   25026   25024   25074   25075
   25027   25030   25033   25036   25027   25030   25033   25035
   25027   25030   25033   25034   25028   25027   25030   25033
   25028   25027   25030   25032   25028   25027   25030   25031
   25029   25027   25030   25033   25029   25027   25030   25032
   25029   25027   25030   25031   25030   25033   25036   25039
   25030   25033   25036   25038   25030   25033   25036   25037
   25031   25030   25033   25036   25031   25030   25033   25035
   25031   25030   25033   25034   25032   25030   25033   25036
   25032   25030   25033   25035   25032   25030   25033   25034
   25033   25036   25039   25042   25033   25036   25039   25041
   25033   25036   25039   25040   25034   25033   25036   25039
   25034   25033   25036   25038   25034   25033   25036   25037
   25035   25033   25036   25039   25035   25033   25036   25038
   25035   25033   25036   25037   25036   25039   25042   25045
   25036   25039   25042   25044   25036   25039   25042   25043
   25037   25036   25039   25042   25037   25036   25039   25041
   25037   25036   25039   25040   25038   25036   25039   25042
   25038   25036   25039   25041   25038   25036   25039   25040
   25039   25042   25045   25047   25039   25042   25045   25046
   25040   25039   25042   25045   25040   25039   25042   25044
   25040   25039   25042   25043   25041   25039   25042   25045
   25041   25039   25042   25044   25041   25039   25042   25043
   25042   25045   25047   25049   25042   25045   25047   25048
   25043   25042   25045   25047   25043   25042   25045   25046
   25044   25042   25045   25047   25044   25042   25045   25046
   25045   25047   25049   25052   25045   25047   25049   25051
   25045   25047   25049   25050   25046   25045   25047   25049
   25046   25045   25047   25048   25047   25049   25052   25055
   25047   25049   25052   25054   25047   25049   25052   25053
   25048   25047   25049   25052   25048   25047   25049   25051
   25048   25047   25049   25050   25049   25052   25055   25058
   25049   25052   25055   25057   25049   25052   25055   25056
   25050   25049   25052   25055   25050   25049   25052   25054
   25050   25049   25052   25053   25051   25049   25052   25055
   25051   25049   25052   25054   25051   25049   25052   25053
   25052   25055   25058   25061   25052   25055   25058   25060
   25052   25055   25058   25059   25053   25052   25055   25058
   25053   25052   25055   25057   25053   25052   25055   25056
   25054   25052   25055   25058   25054   25052   25055   25057
   25054   25052   25055   25056   25055   25058   25061   25064
   25055   25058   25061   25063   25055   25058   25061   25062
   25056   25055   25058   25061   25056   25055   25058   25060
   25056   25055   25058   25059   25057   25055   25058   25061
   25057   25055   25058   25060   25057   25055   25058   25059
   25058   25061   25064   25067   25058   25061   25064   25066
   25058   25061   25064   25065   25059   25058   25061   25064
   25059   25058   25061   25063   25059   25058   25061   25062
   25060   25058   25061   25064   25060   25058   25061   25063
   25060   25058   25061   25062   25061   25064   25067   25070
   25061   25064   25067   25069   25061   25064   25067   25068
   25062   25061   25064   25067   25062   25061   25064   25066
   25062   25061   25064   25065   25063   25061   25064   25067
   25063   25061   25064   25066   25063   25061   25064   25065
   25064   25067   25070   25073   25064   25067   25070   25072
   25064   25067   25070   25071   25065   25064   25067   25070
   25065   25064   25067   25069   25065   25064   25067   25068
   25066   25064   25067   25070   25066   25064   25067   25069
   25066   25064   25067   25068   25068   25067   25070   25073
   25068   25067   25070   25072   25068   25067   25070   25071
   25069   25067   25070   25073   25069   25067   25070   25072
   25069   25067   25070   25071   25074   25077   25080   25083
   25074   25077   25080   25082   25074   25077   25080   25081
   25075   25074   25077   25080   25075   25074   25077   25079
   25075   25074   25077   25078   25076   25074   25077   25080
   25076   25074   25077   25079   25076   25074   25077   25078
   25077   25080   25083   25086   25077   25080   25083   25085
   25077   25080   25083   25084   25078   25077   25080   25083
   25078   25077   25080   25082   25078   25077   25080   25081
   25079   25077   25080   25083   25079   25077   25080   25082
   25079   25077   25080   25081   25080   25083   25086   25089
   25080   25083   25086   25088   25080   25083   25086   25087
   25081   25080   25083   25086   25081   25080   25083   25085
   25081   25080   25083   25084   25082   25080   25083   25086
   25082   25080   25083   25085   25082   25080   25083   25084
   25083   25086   25089   25092   25083   25086   25089   25091
   25083   25086   25089   25090   25084   25083   25086   25089
   25084   25083   25086   25088   25084   25083   25086   25087
   25085   25083   25086   25089   25085   25083   25086   25088
   25085   25083   25086   25087   25086   25089   25092   25095
   25086   25089   25092   25094   25086   25089   25092   25093
   25087   25086   25089   25092   25087   25086   25089   25091
   25087   25086   25089   25090   25088   25086   25089   25092
   25088   25086   25089   25091   25088   25086   25089   25090
   25089   25092   25095   25098   25089   25092   25095   25097
   25089   25092   25095   25096   25090   25089   25092   25095
   25090   25089   25092   25094   25090   25089   25092   25093
   25091   25089   25092   25095   25091   25089   25092   25094
   25091   25089   25092   25093   25092   25095   25098   25101
   25092   25095   25098   25100   25092   25095   25098   25099
   25093   25092   25095   25098   25093   25092   25095   25097
   25093   25092   25095   25096   25094   25092   25095   25098
   25094   25092   25095   25097   25094   25092   25095   25096
   25095   25098   25101   25104   25095   25098   25101   25103
   25095   25098   25101   25102   25096   25095   25098   25101
   25096   25095   25098   25100   25096   25095   25098   25099
   25097   25095   25098   25101   25097   25095   25098   25100
   25097   25095   25098   25099   25098   25101   25104   25107
   25098   25101   25104   25106   25098   25101   25104   25105
   25099   25098   25101   25104   25099   25098   25101   25103
   25099   25098   25101   25102   25100   25098   25101   25104
   25100   25098   25101   25103   25100   25098   25101   25102
   25101   25104   25107   25110   25101   25104   25107   25109
   25101   25104   25107   25108   25102   25101   25104   25107
   25102   25101   25104   25106   25102   25101   25104   25105
   25103   25101   25104   25107   25103   25101   25104   25106
   25103   25101   25104   25105   25104   25107   25110   25113
   25104   25107   25110   25112   25104   25107   25110   25111
   25105   25104   25107   25110   25105   25104   25107   25109
   25105   25104   25107   25108   25106   25104   25107   25110
   25106   25104   25107   25109   25106   25104   25107   25108
   25107   25110   25113   25116   25107   25110   25113   25115
   25107   25110   25113   25114   25108   25107   25110   25113
   25108   25107   25110   25112   25108   25107   25110   25111
   25109   25107   25110   25113   25109   25107   25110   25112
   25109   25107   25110   25111   25111   25110   25113   25116
   25111   25110   25113   25115   25111   25110   25113   25114
   25112   25110   25113   25116   25112   25110   25113   25115
   25112   25110   25113   25114   25117   25121   25124   25131
   25117   25121   25124   25126   25117   25121   25124   25125
   25118   25117   25121   25124   25118   25117   25121   25123
   25118   25117   25121   25122   25119   25117   25121   25124
   25119   25117   25121   25123   25119   25117   25121   25122
   25120   25117   25121   25124   25120   25117   25121   25123
   25120   25117   25121   25122   25121   25124   25131   25127
   25122   25121   25124   25131   25122   25121   25124   25126
   25122   25121   25124   25125   25123   25121   25124   25131
   25123   25121   25124   25126   25123   25121   25124   25125
   25129   25127   25131   25124   25128   25127   25131   25124
   25130   25127   25131   25124   25125   25124   25131   25127
   25126   25124   25131   25127   25127   25130   25132   25135
   25127   25130   25132   25134   25127   25130   25132   25133
   25128   25127   25130   25132   25129   25127   25130   25132
   25130   25132   25135   25137   25130   25132   25135   25143
   25130   25132   25135   25136   25131   25127   25130   25132
   25132   25135   25137   25138   25132   25135   25143   25146
   25132   25135   25143   25145   25132   25135   25143   25144
   25133   25132   25135   25137   25133   25132   25135   25143
   25133   25132   25135   25136   25134   25132   25135   25137
   25134   25132   25135   25143   25134   25132   25135   25136
   25135   25137   25138   25139   25135   25137   25138   25140
   25135   25143   25146   25147   25136   25135   25137   25138
   25136   25135   25143   25146   25136   25135   25143   25145
   25136   25135   25143   25144   25137   25138   25140   25152
   25137   25138   25140   25142   25137   25138   25140   25141
   25137   25135   25143   25146   25137   25135   25143   25145
   25137   25135   25143   25144   25138   25140   25152   25155
   25138   25140   25152   25154   25138   25140   25152   25153
   25143   25135   25137   25138   25139   25138   25140   25152
   25139   25138   25140   25142   25139   25138   25140   25141
   25140   25152   25155   25158   25140   25152   25155   25157
   25140   25152   25155   25156   25141   25140   25152   25155
   25141   25140   25152   25154   25141   25140   25152   25153
   25142   25140   25152   25155   25142   25140   25152   25154
   25142   25140   25152   25153   25143   25146   25147   25148
   25143   25146   25147   25149   25144   25143   25146   25147
   25145   25143   25146   25147   25146   25147   25149   25199
   25146   25147   25149   25151   25146   25147   25149   25150
   25147   25149   25199   25202   25147   25149   25199   25201
   25147   25149   25199   25200   25148   25147   25149   25199
   25148   25147   25149   25151   25148   25147   25149   25150
   25149   25199   25202   25205   25149   25199   25202   25204
   25149   25199   25202   25203   25150   25149   25199   25202
   25150   25149   25199   25201   25150   25149   25199   25200
   25151   25149   25199   25202   25151   25149   25199   25201
   25151   25149   25199   25200   25152   25155   25158   25161
   25152   25155   25158   25160   25152   25155   25158   25159
   25153   25152   25155   25158   25153   25152   25155   25157
   25153   25152   25155   25156   25154   25152   25155   25158
   25154   25152   25155   25157   25154   25152   25155   25156
   25155   25158   25161   25164   25155   25158   25161   25163
   25155   25158   25161   25162   25156   25155   25158   25161
   25156   25155   25158   25160   25156   25155   25158   25159
   25157   25155   25158   25161   25157   25155   25158   25160
   25157   25155   25158   25159   25158   25161   25164   25167
   25158   25161   25164   25166   25158   25161   25164   25165
   25159   25158   25161   25164   25159   25158   25161   25163
   25159   25158   25161   25162   25160   25158   25161   25164
   25160   25158   25161   25163   25160   25158   25161   25162
   25161   25164   25167   25170   25161   25164   25167   25169
   25161   25164   25167   25168   25162   25161   25164   25167
   25162   25161   25164   25166   25162   25161   25164   25165
   25163   25161   25164   25167   25163   25161   25164   25166
   25163   25161   25164   25165   25164   25167   25170   25172
   25164   25167   25170   25171   25165   25164   25167   25170
   25165   25164   25167   25169   25165   25164   25167   25168
   25166   25164   25167   25170   25166   25164   25167   25169
   25166   25164   25167   25168   25167   25170   25172   25174
   25167   25170   25172   25173   25168   25167   25170   25172
   25168   25167   25170   25171   25169   25167   25170   25172
   25169   25167   25170   25171   25170   25172   25174   25177
   25170   25172   25174   25176   25170   25172   25174   25175
   25171   25170   25172   25174   25171   25170   25172   25173
   25172   25174   25177   25180   25172   25174   25177   25179
   25172   25174   25177   25178   25173   25172   25174   25177
   25173   25172   25174   25176   25173   25172   25174   25175
   25174   25177   25180   25183   25174   25177   25180   25182
   25174   25177   25180   25181   25175   25174   25177   25180
   25175   25174   25177   25179   25175   25174   25177   25178
   25176   25174   25177   25180   25176   25174   25177   25179
   25176   25174   25177   25178   25177   25180   25183   25186
   25177   25180   25183   25185   25177   25180   25183   25184
   25178   25177   25180   25183   25178   25177   25180   25182
   25178   25177   25180   25181   25179   25177   25180   25183
   25179   25177   25180   25182   25179   25177   25180   25181
   25180   25183   25186   25189   25180   25183   25186   25188
   25180   25183   25186   25187   25181   25180   25183   25186
   25181   25180   25183   25185   25181   25180   25183   25184
   25182   25180   25183   25186   25182   25180   25183   25185
   25182   25180   25183   25184   25183   25186   25189   25192
   25183   25186   25189   25191   25183   25186   25189   25190
   25184   25183   25186   25189   25184   25183   25186   25188
   25184   25183   25186   25187   25185   25183   25186   25189
   25185   25183   25186   25188   25185   25183   25186   25187
   25186   25189   25192   25195   25186   25189   25192   25194
   25186   25189   25192   25193   25187   25186   25189   25192
   25187   25186   25189   25191   25187   25186   25189   25190
   25188   25186   25189   25192   25188   25186   25189   25191
   25188   25186   25189   25190   25189   25192   25195   25198
   25189   25192   25195   25197   25189   25192   25195   25196
   25190   25189   25192   25195   25190   25189   25192   25194
   25190   25189   25192   25193   25191   25189   25192   25195
   25191   25189   25192   25194   25191   25189   25192   25193
   25193   25192   25195   25198   25193   25192   25195   25197
   25193   25192   25195   25196   25194   25192   25195   25198
   25194   25192   25195   25197   25194   25192   25195   25196
   25199   25202   25205   25208   25199   25202   25205   25207
   25199   25202   25205   25206   25200   25199   25202   25205
   25200   25199   25202   25204   25200   25199   25202   25203
   25201   25199   25202   25205   25201   25199   25202   25204
   25201   25199   25202   25203   25202   25205   25208   25211
   25202   25205   25208   25210   25202   25205   25208   25209
   25203   25202   25205   25208   25203   25202   25205   25207
   25203   25202   25205   25206   25204   25202   25205   25208
   25204   25202   25205   25207   25204   25202   25205   25206
   25205   25208   25211   25214   25205   25208   25211   25213
   25205   25208   25211   25212   25206   25205   25208   25211
   25206   25205   25208   25210   25206   25205   25208   25209
   25207   25205   25208   25211   25207   25205   25208   25210
   25207   25205   25208   25209   25208   25211   25214   25217
   25208   25211   25214   25216   25208   25211   25214   25215
   25209   25208   25211   25214   25209   25208   25211   25213
   25209   25208   25211   25212   25210   25208   25211   25214
   25210   25208   25211   25213   25210   25208   25211   25212
   25211   25214   25217   25220   25211   25214   25217   25219
   25211   25214   25217   25218   25212   25211   25214   25217
   25212   25211   25214   25216   25212   25211   25214   25215
   25213   25211   25214   25217   25213   25211   25214   25216
   25213   25211   25214   25215   25214   25217   25220   25223
   25214   25217   25220   25222   25214   25217   25220   25221
   25215   25214   25217   25220   25215   25214   25217   25219
   25215   25214   25217   25218   25216   25214   25217   25220
   25216   25214   25217   25219   25216   25214   25217   25218
   25217   25220   25223   25226   25217   25220   25223   25225
   25217   25220   25223   25224   25218   25217   25220   25223
   25218   25217   25220   25222   25218   25217   25220   25221
   25219   25217   25220   25223   25219   25217   25220   25222
   25219   25217   25220   25221   25220   25223   25226   25229
   25220   25223   25226   25228   25220   25223   25226   25227
   25221   25220   25223   25226   25221   25220   25223   25225
   25221   25220   25223   25224   25222   25220   25223   25226
   25222   25220   25223   25225   25222   25220   25223   25224
   25223   25226   25229   25232   25223   25226   25229   25231
   25223   25226   25229   25230   25224   25223   25226   25229
   25224   25223   25226   25228   25224   25223   25226   25227
   25225   25223   25226   25229   25225   25223   25226   25228
   25225   25223   25226   25227   25226   25229   25232   25235
   25226   25229   25232   25234   25226   25229   25232   25233
   25227   25226   25229   25232   25227   25226   25229   25231
   25227   25226   25229   25230   25228   25226   25229   25232
   25228   25226   25229   25231   25228   25226   25229   25230
   25229   25232   25235   25238   25229   25232   25235   25237
   25229   25232   25235   25236   25230   25229   25232   25235
   25230   25229   25232   25234   25230   25229   25232   25233
   25231   25229   25232   25235   25231   25229   25232   25234
   25231   25229   25232   25233   25232   25235   25238   25241
   25232   25235   25238   25240   25232   25235   25238   25239
   25233   25232   25235   25238   25233   25232   25235   25237
   25233   25232   25235   25236   25234   25232   25235   25238
   25234   25232   25235   25237   25234   25232   25235   25236
   25236   25235   25238   25241   25236   25235   25238   25240
   25236   25235   25238   25239   25237   25235   25238   25241
   25237   25235   25238   25240   25237   25235   25238   25239
   25242   25246   25249   25256   25242   25246   25249   25251
   25242   25246   25249   25250   25243   25242   25246   25249
   25243   25242   25246   25248   25243   25242   25246   25247
   25244   25242   25246   25249   25244   25242   25246   25248
   25244   25242   25246   25247   25245   25242   25246   25249
   25245   25242   25246   25248   25245   25242   25246   25247
   25246   25249   25256   25252   25247   25246   25249   25256
   25247   25246   25249   25251   25247   25246   25249   25250
   25248   25246   25249   25256   25248   25246   25249   25251
   25248   25246   25249   25250   25254   25252   25256   25249
   25253   25252   25256   25249   25255   25252   25256   25249
   25250   25249   25256   25252   25251   25249   25256   25252
   25252   25255   25257   25260   25252   25255   25257   25259
   25252   25255   25257   25258   25253   25252   25255   25257
   25254   25252   25255   25257   25255   25257   25260   25262
   25255   25257   25260   25268   25255   25257   25260   25261
   25256   25252   25255   25257   25257   25260   25262   25263
   25257   25260   25268   25271   25257   25260   25268   25270
   25257   25260   25268   25269   25258   25257   25260   25262
   25258   25257   25260   25268   25258   25257   25260   25261
   25259   25257   25260   25262   25259   25257   25260   25268
   25259   25257   25260   25261   25260   25262   25263   25264
   25260   25262   25263   25265   25260   25268   25271   25272
   25261   25260   25262   25263   25261   25260   25268   25271
   25261   25260   25268   25270   25261   25260   25268   25269
   25262   25263   25265   25277   25262   25263   25265   25267
   25262   25263   25265   25266   25262   25260   25268   25271
   25262   25260   25268   25270   25262   25260   25268   25269
   25263   25265   25277   25280   25263   25265   25277   25279
   25263   25265   25277   25278   25268   25260   25262   25263
   25264   25263   25265   25277   25264   25263   25265   25267
   25264   25263   25265   25266   25265   25277   25280   25283
   25265   25277   25280   25282   25265   25277   25280   25281
   25266   25265   25277   25280   25266   25265   25277   25279
   25266   25265   25277   25278   25267   25265   25277   25280
   25267   25265   25277   25279   25267   25265   25277   25278
   25268   25271   25272   25273   25268   25271   25272   25274
   25269   25268   25271   25272   25270   25268   25271   25272
   25271   25272   25274   25324   25271   25272   25274   25276
   25271   25272   25274   25275   25272   25274   25324   25327
   25272   25274   25324   25326   25272   25274   25324   25325
   25273   25272   25274   25324   25273   25272   25274   25276
   25273   25272   25274   25275   25274   25324   25327   25330
   25274   25324   25327   25329   25274   25324   25327   25328
   25275   25274   25324   25327   25275   25274   25324   25326
   25275   25274   25324   25325   25276   25274   25324   25327
   25276   25274   25324   25326   25276   25274   25324   25325
   25277   25280   25283   25286   25277   25280   25283   25285
   25277   25280   25283   25284   25278   25277   25280   25283
   25278   25277   25280   25282   25278   25277   25280   25281
   25279   25277   25280   25283   25279   25277   25280   25282
   25279   25277   25280   25281   25280   25283   25286   25289
   25280   25283   25286   25288   25280   25283   25286   25287
   25281   25280   25283   25286   25281   25280   25283   25285
   25281   25280   25283   25284   25282   25280   25283   25286
   25282   25280   25283   25285   25282   25280   25283   25284
   25283   25286   25289   25292   25283   25286   25289   25291
   25283   25286   25289   25290   25284   25283   25286   25289
   25284   25283   25286   25288   25284   25283   25286   25287
   25285   25283   25286   25289   25285   25283   25286   25288
   25285   25283   25286   25287   25286   25289   25292   25295
   25286   25289   25292   25294   25286   25289   25292   25293
   25287   25286   25289   25292   25287   25286   25289   25291
   25287   25286   25289   25290   25288   25286   25289   25292
   25288   25286   25289   25291   25288   25286   25289   25290
   25289   25292   25295   25297   25289   25292   25295   25296
   25290   25289   25292   25295   25290   25289   25292   25294
   25290   25289   25292   25293   25291   25289   25292   25295
   25291   25289   25292   25294   25291   25289   25292   25293
   25292   25295   25297   25299   25292   25295   25297   25298
   25293   25292   25295   25297   25293   25292   25295   25296
   25294   25292   25295   25297   25294   25292   25295   25296
   25295   25297   25299   25302   25295   25297   25299   25301
   25295   25297   25299   25300   25296   25295   25297   25299
   25296   25295   25297   25298   25297   25299   25302   25305
   25297   25299   25302   25304   25297   25299   25302   25303
   25298   25297   25299   25302   25298   25297   25299   25301
   25298   25297   25299   25300   25299   25302   25305   25308
   25299   25302   25305   25307   25299   25302   25305   25306
   25300   25299   25302   25305   25300   25299   25302   25304
   25300   25299   25302   25303   25301   25299   25302   25305
   25301   25299   25302   25304   25301   25299   25302   25303
   25302   25305   25308   25311   25302   25305   25308   25310
   25302   25305   25308   25309   25303   25302   25305   25308
   25303   25302   25305   25307   25303   25302   25305   25306
   25304   25302   25305   25308   25304   25302   25305   25307
   25304   25302   25305   25306   25305   25308   25311   25314
   25305   25308   25311   25313   25305   25308   25311   25312
   25306   25305   25308   25311   25306   25305   25308   25310
   25306   25305   25308   25309   25307   25305   25308   25311
   25307   25305   25308   25310   25307   25305   25308   25309
   25308   25311   25314   25317   25308   25311   25314   25316
   25308   25311   25314   25315   25309   25308   25311   25314
   25309   25308   25311   25313   25309   25308   25311   25312
   25310   25308   25311   25314   25310   25308   25311   25313
   25310   25308   25311   25312   25311   25314   25317   25320
   25311   25314   25317   25319   25311   25314   25317   25318
   25312   25311   25314   25317   25312   25311   25314   25316
   25312   25311   25314   25315   25313   25311   25314   25317
   25313   25311   25314   25316   25313   25311   25314   25315
   25314   25317   25320   25323   25314   25317   25320   25322
   25314   25317   25320   25321   25315   25314   25317   25320
   25315   25314   25317   25319   25315   25314   25317   25318
   25316   25314   25317   25320   25316   25314   25317   25319
   25316   25314   25317   25318   25318   25317   25320   25323
   25318   25317   25320   25322   25318   25317   25320   25321
   25319   25317   25320   25323   25319   25317   25320   25322
   25319   25317   25320   25321   25324   25327   25330   25333
   25324   25327   25330   25332   25324   25327   25330   25331
   25325   25324   25327   25330   25325   25324   25327   25329
   25325   25324   25327   25328   25326   25324   25327   25330
   25326   25324   25327   25329   25326   25324   25327   25328
   25327   25330   25333   25336   25327   25330   25333   25335
   25327   25330   25333   25334   25328   25327   25330   25333
   25328   25327   25330   25332   25328   25327   25330   25331
   25329   25327   25330   25333   25329   25327   25330   25332
   25329   25327   25330   25331   25330   25333   25336   25339
   25330   25333   25336   25338   25330   25333   25336   25337
   25331   25330   25333   25336   25331   25330   25333   25335
   25331   25330   25333   25334   25332   25330   25333   25336
   25332   25330   25333   25335   25332   25330   25333   25334
   25333   25336   25339   25342   25333   25336   25339   25341
   25333   25336   25339   25340   25334   25333   25336   25339
   25334   25333   25336   25338   25334   25333   25336   25337
   25335   25333   25336   25339   25335   25333   25336   25338
   25335   25333   25336   25337   25336   25339   25342   25345
   25336   25339   25342   25344   25336   25339   25342   25343
   25337   25336   25339   25342   25337   25336   25339   25341
   25337   25336   25339   25340   25338   25336   25339   25342
   25338   25336   25339   25341   25338   25336   25339   25340
   25339   25342   25345   25348   25339   25342   25345   25347
   25339   25342   25345   25346   25340   25339   25342   25345
   25340   25339   25342   25344   25340   25339   25342   25343
   25341   25339   25342   25345   25341   25339   25342   25344
   25341   25339   25342   25343   25342   25345   25348   25351
   25342   25345   25348   25350   25342   25345   25348   25349
   25343   25342   25345   25348   25343   25342   25345   25347
   25343   25342   25345   25346   25344   25342   25345   25348
   25344   25342   25345   25347   25344   25342   25345   25346
   25345   25348   25351   25354   25345   25348   25351   25353
   25345   25348   25351   25352   25346   25345   25348   25351
   25346   25345   25348   25350   25346   25345   25348   25349
   25347   25345   25348   25351   25347   25345   25348   25350
   25347   25345   25348   25349   25348   25351   25354   25357
   25348   25351   25354   25356   25348   25351   25354   25355
   25349   25348   25351   25354   25349   25348   25351   25353
   25349   25348   25351   25352   25350   25348   25351   25354
   25350   25348   25351   25353   25350   25348   25351   25352
   25351   25354   25357   25360   25351   25354   25357   25359
   25351   25354   25357   25358   25352   25351   25354   25357
   25352   25351   25354   25356   25352   25351   25354   25355
   25353   25351   25354   25357   25353   25351   25354   25356
   25353   25351   25354   25355   25354   25357   25360   25363
   25354   25357   25360   25362   25354   25357   25360   25361
   25355   25354   25357   25360   25355   25354   25357   25359
   25355   25354   25357   25358   25356   25354   25357   25360
   25356   25354   25357   25359   25356   25354   25357   25358
   25357   25360   25363   25366   25357   25360   25363   25365
   25357   25360   25363   25364   25358   25357   25360   25363
   25358   25357   25360   25362   25358   25357   25360   25361
   25359   25357   25360   25363   25359   25357   25360   25362
   25359   25357   25360   25361   25361   25360   25363   25366
   25361   25360   25363   25365   25361   25360   25363   25364
   25362   25360   25363   25366   25362   25360   25363   25365
   25362   25360   25363   25364   25367   25380   25383   25385
   25367   25380   25383   25384   25367   25380   25383   25390
   25368   25367   25372   25375   25368   25367   25372   25374
   25368   25367   25372   25373   25368   25367   25376   25379
   25368   25367   25376   25378   25368   25367   25376   25377
   25368   25367   25380   25382   25368   25367   25380   25381
   25368   25367   25380   25383   25372   25367   25368   25369
   25376   25367   25368   25369   25380   25367   25368   25369
   25372   25367   25368   25370   25376   25367   25368   25370
   25380   25367   25368   25370   25372   25367   25368   25371
   25376   25367   25368   25371   25380   25367   25368   25371
   25372   25367   25376   25379   25372   25367   25376   25378
   25372   25367   25376   25377   25372   25367   25380   25382
   25372   25367   25380   25381   25372   25367   25380   25383
   25376   25367   25372   25373   25380   25367   25372   25373
   25376   25367   25372   25374   25380   25367   25372   25374
   25376   25367   25372   25375   25380   25367   25372   25375
   25376   25367   25380   25382   25376   25367   25380   25381
   25376   25367   25380   25383   25380   25367   25376   25377
   25380   25367   25376   25378   25380   25367   25376   25379
   25380   25383   25390   25386   25381   25380   25383   25385
   25381   25380   25383   25384   25381   25380   25383   25390
   25382   25380   25383   25385   25382   25380   25383   25384
   25382   25380   25383   25390   25388   25386   25390   25383
   25387   25386   25390   25383   25389   25386   25390   25383
   25384   25383   25390   25386   25385   25383   25390   25386
   25386   25389   25391   25393   25386   25389   25391   25392
   25386   25389   25391   25396   25387   25386   25389   25391
   25388   25386   25389   25391   25389   25391   25396   25394
   25389   25391   25396   25397   25389   25391   25396   25398
   25390   25386   25389   25391   25446   25394   25396   25391
   25395   25394   25396   25391   25391   25396   25398   25400
   25391   25396   25398   25399   25391   25396   25398   25402
   25392   25391   25396   25394   25392   25391   25396   25397
   25392   25391   25396   25398   25393   25391   25396   25394
   25393   25391   25396   25397   25393   25391   25396   25398
   25394   25446   25448   25451   25394   25446   25448   25450
   25394   25446   25448   25449   25394   25396   25398   25400
   25394   25396   25398   25399   25394   25396   25398   25402
   25395   25394   25446   25447   25395   25394   25446   25448
   25395   25394   25396   25397   25395   25394   25396   25398
   25396   25394   25446   25447   25396   25394   25446   25448
   25396   25398   25400   25401   25396   25398   25402   25404
   25396   25398   25402   25403   25446   25394   25396   25397
   25397   25396   25398   25400   25397   25396   25398   25399
   25397   25396   25398   25402   25446   25394   25396   25398
   25398   25402   25404   25405   25398   25402   25404   25406
   25399   25398   25400   25401   25399   25398   25402   25404
   25399   25398   25402   25403   25400   25398   25402   25404
   25400   25398   25402   25403   25402   25398   25400   25401
   25402   25404   25406   25408   25402   25404   25406   25407
   25402   25404   25406   25409   25403   25402   25404   25405
   25403   25402   25404   25406   25404   25406   25409   25411
   25404   25406   25409   25410   25404   25406   25409   25412
   25405   25404   25406   25408   25405   25404   25406   25407
   25405   25404   25406   25409   25406   25409   25412   25414
   25406   25409   25412   25413   25406   25409   25412   25415
   25407   25406   25409   25411   25407   25406   25409   25410
   25407   25406   25409   25412   25408   25406   25409   25411
   25408   25406   25409   25410   25408   25406   25409   25412
   25409   25412   25415   25417   25409   25412   25415   25416
   25409   25412   25415   25418   25410   25409   25412   25414
   25410   25409   25412   25413   25410   25409   25412   25415
   25411   25409   25412   25414   25411   25409   25412   25413
   25411   25409   25412   25415   25412   25415   25418   25420
   25412   25415   25418   25419   25412   25415   25418   25421
   25413   25412   25415   25417   25413   25412   25415   25416
   25413   25412   25415   25418   25414   25412   25415   25417
   25414   25412   25415   25416   25414   25412   25415   25418
   25415   25418   25421   25423   25415   25418   25421   25422
   25415   25418   25421   25424   25416   25415   25418   25420
   25416   25415   25418   25419   25416   25415   25418   25421
   25417   25415   25418   25420   25417   25415   25418   25419
   25417   25415   25418   25421   25418   25421   25424   25426
   25418   25421   25424   25425   25418   25421   25424   25427
   25419   25418   25421   25423   25419   25418   25421   25422
   25419   25418   25421   25424   25420   25418   25421   25423
   25420   25418   25421   25422   25420   25418   25421   25424
   25421   25424   25427   25429   25421   25424   25427   25428
   25421   25424   25427   25430   25422   25421   25424   25426
   25422   25421   25424   25425   25422   25421   25424   25427
   25423   25421   25424   25426   25423   25421   25424   25425
   25423   25421   25424   25427   25424   25427   25430   25432
   25424   25427   25430   25431   25424   25427   25430   25433
   25425   25424   25427   25429   25425   25424   25427   25428
   25425   25424   25427   25430   25426   25424   25427   25429
   25426   25424   25427   25428   25426   25424   25427   25430
   25427   25430   25433   25435   25427   25430   25433   25434
   25427   25430   25433   25436   25428   25427   25430   25432
   25428   25427   25430   25431   25428   25427   25430   25433
   25429   25427   25430   25432   25429   25427   25430   25431
   25429   25427   25430   25433   25430   25433   25436   25438
   25430   25433   25436   25437   25430   25433   25436   25439
   25431   25430   25433   25435   25431   25430   25433   25434
   25431   25430   25433   25436   25432   25430   25433   25435
   25432   25430   25433   25434   25432   25430   25433   25436
   25433   25436   25439   25441   25433   25436   25439   25440
   25433   25436   25439   25442   25434   25433   25436   25438
   25434   25433   25436   25437   25434   25433   25436   25439
   25435   25433   25436   25438   25435   25433   25436   25437
   25435   25433   25436   25439   25436   25439   25442   25445
   25436   25439   25442   25444   25436   25439   25442   25443
   25437   25436   25439   25441   25437   25436   25439   25440
   25437   25436   25439   25442   25438   25436   25439   25441
   25438   25436   25439   25440   25438   25436   25439   25442
   25440   25439   25442   25445   25440   25439   25442   25444
   25440   25439   25442   25443   25441   25439   25442   25445
   25441   25439   25442   25444   25441   25439   25442   25443
   25446   25448   25451   25454   25446   25448   25451   25453
   25446   25448   25451   25452   25447   25446   25448   25451
   25447   25446   25448   25450   25447   25446   25448   25449
   25448   25451   25454   25457   25448   25451   25454   25456
   25448   25451   25454   25455   25449   25448   25451   25454
   25449   25448   25451   25453   25449   25448   25451   25452
   25450   25448   25451   25454   25450   25448   25451   25453
   25450   25448   25451   25452   25451   25454   25457   25460
   25451   25454   25457   25459   25451   25454   25457   25458
   25452   25451   25454   25457   25452   25451   25454   25456
   25452   25451   25454   25455   25453   25451   25454   25457
   25453   25451   25454   25456   25453   25451   25454   25455
   25454   25457   25460   25463   25454   25457   25460   25462
   25454   25457   25460   25461   25455   25454   25457   25460
   25455   25454   25457   25459   25455   25454   25457   25458
   25456   25454   25457   25460   25456   25454   25457   25459
   25456   25454   25457   25458   25457   25460   25463   25466
   25457   25460   25463   25465   25457   25460   25463   25464
   25458   25457   25460   25463   25458   25457   25460   25462
   25458   25457   25460   25461   25459   25457   25460   25463
   25459   25457   25460   25462   25459   25457   25460   25461
   25460   25463   25466   25469   25460   25463   25466   25468
   25460   25463   25466   25467   25461   25460   25463   25466
   25461   25460   25463   25465   25461   25460   25463   25464
   25462   25460   25463   25466   25462   25460   25463   25465
   25462   25460   25463   25464   25463   25466   25469   25472
   25463   25466   25469   25471   25463   25466   25469   25470
   25464   25463   25466   25469   25464   25463   25466   25468
   25464   25463   25466   25467   25465   25463   25466   25469
   25465   25463   25466   25468   25465   25463   25466   25467
   25466   25469   25472   25475   25466   25469   25472   25474
   25466   25469   25472   25473   25467   25466   25469   25472
   25467   25466   25469   25471   25467   25466   25469   25470
   25468   25466   25469   25472   25468   25466   25469   25471
   25468   25466   25469   25470   25469   25472   25475   25478
   25469   25472   25475   25477   25469   25472   25475   25476
   25470   25469   25472   25475   25470   25469   25472   25474
   25470   25469   25472   25473   25471   25469   25472   25475
   25471   25469   25472   25474   25471   25469   25472   25473
   25472   25475   25478   25481   25472   25475   25478   25480
   25472   25475   25478   25479   25473   25472   25475   25478
   25473   25472   25475   25477   25473   25472   25475   25476
   25474   25472   25475   25478   25474   25472   25475   25477
   25474   25472   25475   25476   25475   25478   25481   25484
   25475   25478   25481   25483   25475   25478   25481   25482
   25476   25475   25478   25481   25476   25475   25478   25480
   25476   25475   25478   25479   25477   25475   25478   25481
   25477   25475   25478   25480   25477   25475   25478   25479
   25478   25481   25484   25487   25478   25481   25484   25486
   25478   25481   25484   25485   25479   25478   25481   25484
   25479   25478   25481   25483   25479   25478   25481   25482
   25480   25478   25481   25484   25480   25478   25481   25483
   25480   25478   25481   25482   25481   25484   25487   25490
   25481   25484   25487   25489   25481   25484   25487   25488
   25482   25481   25484   25487   25482   25481   25484   25486
   25482   25481   25484   25485   25483   25481   25484   25487
   25483   25481   25484   25486   25483   25481   25484   25485
   25484   25487   25490   25493   25484   25487   25490   25492
   25484   25487   25490   25491   25485   25484   25487   25490
   25485   25484   25487   25489   25485   25484   25487   25488
   25486   25484   25487   25490   25486   25484   25487   25489
   25486   25484   25487   25488   25488   25487   25490   25493
   25488   25487   25490   25492   25488   25487   25490   25491
   25489   25487   25490   25493   25489   25487   25490   25492
   25489   25487   25490   25491   25494   25495   25510   25516
   25494   25495   25510   25512   25494   25495   25510   25511
   25495   25510   25516   25513   25495   25494   25506   25509
   25495   25494   25506   25508   25495   25494   25506   25507
   25495   25494   25502   25505   25495   25494   25502   25504
   25495   25494   25502   25503   25495   25494   25498   25501
   25495   25494   25498   25500   25495   25494   25498   25499
   25496   25495   25510   25516   25496   25495   25510   25512
   25496   25495   25510   25511   25506   25494   25495   25496
   25502   25494   25495   25496   25498   25494   25495   25496
   25497   25495   25510   25516   25497   25495   25510   25512
   25497   25495   25510   25511   25506   25494   25495   25497
   25502   25494   25495   25497   25498   25494   25495   25497
   25498   25494   25495   25510   25498   25494   25506   25509
   25498   25494   25506   25508   25498   25494   25506   25507
   25498   25494   25502   25505   25498   25494   25502   25504
   25498   25494   25502   25503   25506   25494   25498   25499
   25502   25494   25498   25499   25506   25494   25498   25500
   25502   25494   25498   25500   25506   25494   25498   25501
   25502   25494   25498   25501   25502   25494   25495   25510
   25502   25494   25506   25509   25502   25494   25506   25508
   25502   25494   25506   25507   25506   25494   25502   25503
   25506   25494   25502   25504   25506   25494   25502   25505
   25506   25494   25495   25510   25515   25513   25516   25510
   25514   25513   25516   25510   25517   25513   25516   25510
   25511   25510   25516   25513   25512   25510   25516   25513
   25513   25517   25518   25521   25513   25517   25518   25520
   25513   25517   25518   25519   25514   25513   25517   25518
   25515   25513   25517   25518   25516   25513   25517   25518
   25517   25518   25521   25523   25517   25518   25521   25529
   25517   25518   25521   25522   25518   25521   25523   25524
   25518   25521   25529   25532   25518   25521   25529   25531
   25518   25521   25529   25530   25519   25518   25521   25523
   25519   25518   25521   25529   25519   25518   25521   25522
   25520   25518   25521   25523   25520   25518   25521   25529
   25520   25518   25521   25522   25521   25523   25524   25525
   25521   25523   25524   25526   25521   25529   25532   25533
   25522   25521   25523   25524   25522   25521   25529   25532
   25522   25521   25529   25531   25522   25521   25529   25530
   25523   25524   25526   25538   25523   25524   25526   25528
   25523   25524   25526   25527   25523   25521   25529   25532
   25523   25521   25529   25531   25523   25521   25529   25530
   25524   25526   25538   25541   25524   25526   25538   25540
   25524   25526   25538   25539   25529   25521   25523   25524
   25525   25524   25526   25538   25525   25524   25526   25528
   25525   25524   25526   25527   25526   25538   25541   25544
   25526   25538   25541   25543   25526   25538   25541   25542
   25527   25526   25538   25541   25527   25526   25538   25540
   25527   25526   25538   25539   25528   25526   25538   25541
   25528   25526   25538   25540   25528   25526   25538   25539
   25529   25532   25533   25534   25529   25532   25533   25535
   25530   25529   25532   25533   25531   25529   25532   25533
   25532   25533   25535   25585   25532   25533   25535   25537
   25532   25533   25535   25536   25533   25535   25585   25588
   25533   25535   25585   25587   25533   25535   25585   25586
   25534   25533   25535   25585   25534   25533   25535   25537
   25534   25533   25535   25536   25535   25585   25588   25591
   25535   25585   25588   25590   25535   25585   25588   25589
   25536   25535   25585   25588   25536   25535   25585   25587
   25536   25535   25585   25586   25537   25535   25585   25588
   25537   25535   25585   25587   25537   25535   25585   25586
   25538   25541   25544   25547   25538   25541   25544   25546
   25538   25541   25544   25545   25539   25538   25541   25544
   25539   25538   25541   25543   25539   25538   25541   25542
   25540   25538   25541   25544   25540   25538   25541   25543
   25540   25538   25541   25542   25541   25544   25547   25550
   25541   25544   25547   25549   25541   25544   25547   25548
   25542   25541   25544   25547   25542   25541   25544   25546
   25542   25541   25544   25545   25543   25541   25544   25547
   25543   25541   25544   25546   25543   25541   25544   25545
   25544   25547   25550   25553   25544   25547   25550   25552
   25544   25547   25550   25551   25545   25544   25547   25550
   25545   25544   25547   25549   25545   25544   25547   25548
   25546   25544   25547   25550   25546   25544   25547   25549
   25546   25544   25547   25548   25547   25550   25553   25556
   25547   25550   25553   25555   25547   25550   25553   25554
   25548   25547   25550   25553   25548   25547   25550   25552
   25548   25547   25550   25551   25549   25547   25550   25553
   25549   25547   25550   25552   25549   25547   25550   25551
   25550   25553   25556   25558   25550   25553   25556   25557
   25551   25550   25553   25556   25551   25550   25553   25555
   25551   25550   25553   25554   25552   25550   25553   25556
   25552   25550   25553   25555   25552   25550   25553   25554
   25553   25556   25558   25560   25553   25556   25558   25559
   25554   25553   25556   25558   25554   25553   25556   25557
   25555   25553   25556   25558   25555   25553   25556   25557
   25556   25558   25560   25563   25556   25558   25560   25562
   25556   25558   25560   25561   25557   25556   25558   25560
   25557   25556   25558   25559   25558   25560   25563   25566
   25558   25560   25563   25565   25558   25560   25563   25564
   25559   25558   25560   25563   25559   25558   25560   25562
   25559   25558   25560   25561   25560   25563   25566   25569
   25560   25563   25566   25568   25560   25563   25566   25567
   25561   25560   25563   25566   25561   25560   25563   25565
   25561   25560   25563   25564   25562   25560   25563   25566
   25562   25560   25563   25565   25562   25560   25563   25564
   25563   25566   25569   25572   25563   25566   25569   25571
   25563   25566   25569   25570   25564   25563   25566   25569
   25564   25563   25566   25568   25564   25563   25566   25567
   25565   25563   25566   25569   25565   25563   25566   25568
   25565   25563   25566   25567   25566   25569   25572   25575
   25566   25569   25572   25574   25566   25569   25572   25573
   25567   25566   25569   25572   25567   25566   25569   25571
   25567   25566   25569   25570   25568   25566   25569   25572
   25568   25566   25569   25571   25568   25566   25569   25570
   25569   25572   25575   25578   25569   25572   25575   25577
   25569   25572   25575   25576   25570   25569   25572   25575
   25570   25569   25572   25574   25570   25569   25572   25573
   25571   25569   25572   25575   25571   25569   25572   25574
   25571   25569   25572   25573   25572   25575   25578   25581
   25572   25575   25578   25580   25572   25575   25578   25579
   25573   25572   25575   25578   25573   25572   25575   25577
   25573   25572   25575   25576   25574   25572   25575   25578
   25574   25572   25575   25577   25574   25572   25575   25576
   25575   25578   25581   25584   25575   25578   25581   25583
   25575   25578   25581   25582   25576   25575   25578   25581
   25576   25575   25578   25580   25576   25575   25578   25579
   25577   25575   25578   25581   25577   25575   25578   25580
   25577   25575   25578   25579   25579   25578   25581   25584
   25579   25578   25581   25583   25579   25578   25581   25582
   25580   25578   25581   25584   25580   25578   25581   25583
   25580   25578   25581   25582   25585   25588   25591   25594
   25585   25588   25591   25593   25585   25588   25591   25592
   25586   25585   25588   25591   25586   25585   25588   25590
   25586   25585   25588   25589   25587   25585   25588   25591
   25587   25585   25588   25590   25587   25585   25588   25589
   25588   25591   25594   25597   25588   25591   25594   25596
   25588   25591   25594   25595   25589   25588   25591   25594
   25589   25588   25591   25593   25589   25588   25591   25592
   25590   25588   25591   25594   25590   25588   25591   25593
   25590   25588   25591   25592   25591   25594   25597   25600
   25591   25594   25597   25599   25591   25594   25597   25598
   25592   25591   25594   25597   25592   25591   25594   25596
   25592   25591   25594   25595   25593   25591   25594   25597
   25593   25591   25594   25596   25593   25591   25594   25595
   25594   25597   25600   25603   25594   25597   25600   25602
   25594   25597   25600   25601   25595   25594   25597   25600
   25595   25594   25597   25599   25595   25594   25597   25598
   25596   25594   25597   25600   25596   25594   25597   25599
   25596   25594   25597   25598   25597   25600   25603   25606
   25597   25600   25603   25605   25597   25600   25603   25604
   25598   25597   25600   25603   25598   25597   25600   25602
   25598   25597   25600   25601   25599   25597   25600   25603
   25599   25597   25600   25602   25599   25597   25600   25601
   25600   25603   25606   25609   25600   25603   25606   25608
   25600   25603   25606   25607   25601   25600   25603   25606
   25601   25600   25603   25605   25601   25600   25603   25604
   25602   25600   25603   25606   25602   25600   25603   25605
   25602   25600   25603   25604   25603   25606   25609   25612
   25603   25606   25609   25611   25603   25606   25609   25610
   25604   25603   25606   25609   25604   25603   25606   25608
   25604   25603   25606   25607   25605   25603   25606   25609
   25605   25603   25606   25608   25605   25603   25606   25607
   25606   25609   25612   25615   25606   25609   25612   25614
   25606   25609   25612   25613   25607   25606   25609   25612
   25607   25606   25609   25611   25607   25606   25609   25610
   25608   25606   25609   25612   25608   25606   25609   25611
   25608   25606   25609   25610   25609   25612   25615   25618
   25609   25612   25615   25617   25609   25612   25615   25616
   25610   25609   25612   25615   25610   25609   25612   25614
   25610   25609   25612   25613   25611   25609   25612   25615
   25611   25609   25612   25614   25611   25609   25612   25613
   25612   25615   25618   25621   25612   25615   25618   25620
   25612   25615   25618   25619   25613   25612   25615   25618
   25613   25612   25615   25617   25613   25612   25615   25616
   25614   25612   25615   25618   25614   25612   25615   25617
   25614   25612   25615   25616   25615   25618   25621   25624
   25615   25618   25621   25623   25615   25618   25621   25622
   25616   25615   25618   25621   25616   25615   25618   25620
   25616   25615   25618   25619   25617   25615   25618   25621
   25617   25615   25618   25620   25617   25615   25618   25619
   25618   25621   25624   25627   25618   25621   25624   25626
   25618   25621   25624   25625   25619   25618   25621   25624
   25619   25618   25621   25623   25619   25618   25621   25622
   25620   25618   25621   25624   25620   25618   25621   25623
   25620   25618   25621   25622   25622   25621   25624   25627
   25622   25621   25624   25626   25622   25621   25624   25625
   25623   25621   25624   25627   25623   25621   25624   25626
   25623   25621   25624   25625   25628   25632   25635   25642
   25628   25632   25635   25637   25628   25632   25635   25636
   25629   25628   25632   25635   25629   25628   25632   25634
   25629   25628   25632   25633   25630   25628   25632   25635
   25630   25628   25632   25634   25630   25628   25632   25633
   25631   25628   25632   25635   25631   25628   25632   25634
   25631   25628   25632   25633   25632   25635   25642   25638
   25633   25632   25635   25642   25633   25632   25635   25637
   25633   25632   25635   25636   25634   25632   25635   25642
   25634   25632   25635   25637   25634   25632   25635   25636
   25640   25638   25642   25635   25639   25638   25642   25635
   25641   25638   25642   25635   25636   25635   25642   25638
   25637   25635   25642   25638   25638   25641   25643   25646
   25638   25641   25643   25645   25638   25641   25643   25644
   25639   25638   25641   25643   25640   25638   25641   25643
   25641   25643   25646   25648   25641   25643   25646   25654
   25641   25643   25646   25647   25642   25638   25641   25643
   25643   25646   25648   25649   25643   25646   25654   25657
   25643   25646   25654   25656   25643   25646   25654   25655
   25644   25643   25646   25648   25644   25643   25646   25654
   25644   25643   25646   25647   25645   25643   25646   25648
   25645   25643   25646   25654   25645   25643   25646   25647
   25646   25648   25649   25650   25646   25648   25649   25651
   25646   25654   25657   25658   25647   25646   25648   25649
   25647   25646   25654   25657   25647   25646   25654   25656
   25647   25646   25654   25655   25648   25649   25651   25663
   25648   25649   25651   25653   25648   25649   25651   25652
   25648   25646   25654   25657   25648   25646   25654   25656
   25648   25646   25654   25655   25649   25651   25663   25666
   25649   25651   25663   25665   25649   25651   25663   25664
   25654   25646   25648   25649   25650   25649   25651   25663
   25650   25649   25651   25653   25650   25649   25651   25652
   25651   25663   25666   25669   25651   25663   25666   25668
   25651   25663   25666   25667   25652   25651   25663   25666
   25652   25651   25663   25665   25652   25651   25663   25664
   25653   25651   25663   25666   25653   25651   25663   25665
   25653   25651   25663   25664   25654   25657   25658   25659
   25654   25657   25658   25660   25655   25654   25657   25658
   25656   25654   25657   25658   25657   25658   25660   25710
   25657   25658   25660   25662   25657   25658   25660   25661
   25658   25660   25710   25713   25658   25660   25710   25712
   25658   25660   25710   25711   25659   25658   25660   25710
   25659   25658   25660   25662   25659   25658   25660   25661
   25660   25710   25713   25716   25660   25710   25713   25715
   25660   25710   25713   25714   25661   25660   25710   25713
   25661   25660   25710   25712   25661   25660   25710   25711
   25662   25660   25710   25713   25662   25660   25710   25712
   25662   25660   25710   25711   25663   25666   25669   25672
   25663   25666   25669   25671   25663   25666   25669   25670
   25664   25663   25666   25669   25664   25663   25666   25668
   25664   25663   25666   25667   25665   25663   25666   25669
   25665   25663   25666   25668   25665   25663   25666   25667
   25666   25669   25672   25675   25666   25669   25672   25674
   25666   25669   25672   25673   25667   25666   25669   25672
   25667   25666   25669   25671   25667   25666   25669   25670
   25668   25666   25669   25672   25668   25666   25669   25671
   25668   25666   25669   25670   25669   25672   25675   25678
   25669   25672   25675   25677   25669   25672   25675   25676
   25670   25669   25672   25675   25670   25669   25672   25674
   25670   25669   25672   25673   25671   25669   25672   25675
   25671   25669   25672   25674   25671   25669   25672   25673
   25672   25675   25678   25681   25672   25675   25678   25680
   25672   25675   25678   25679   25673   25672   25675   25678
   25673   25672   25675   25677   25673   25672   25675   25676
   25674   25672   25675   25678   25674   25672   25675   25677
   25674   25672   25675   25676   25675   25678   25681   25683
   25675   25678   25681   25682   25676   25675   25678   25681
   25676   25675   25678   25680   25676   25675   25678   25679
   25677   25675   25678   25681   25677   25675   25678   25680
   25677   25675   25678   25679   25678   25681   25683   25685
   25678   25681   25683   25684   25679   25678   25681   25683
   25679   25678   25681   25682   25680   25678   25681   25683
   25680   25678   25681   25682   25681   25683   25685   25688
   25681   25683   25685   25687   25681   25683   25685   25686
   25682   25681   25683   25685   25682   25681   25683   25684
   25683   25685   25688   25691   25683   25685   25688   25690
   25683   25685   25688   25689   25684   25683   25685   25688
   25684   25683   25685   25687   25684   25683   25685   25686
   25685   25688   25691   25694   25685   25688   25691   25693
   25685   25688   25691   25692   25686   25685   25688   25691
   25686   25685   25688   25690   25686   25685   25688   25689
   25687   25685   25688   25691   25687   25685   25688   25690
   25687   25685   25688   25689   25688   25691   25694   25697
   25688   25691   25694   25696   25688   25691   25694   25695
   25689   25688   25691   25694   25689   25688   25691   25693
   25689   25688   25691   25692   25690   25688   25691   25694
   25690   25688   25691   25693   25690   25688   25691   25692
   25691   25694   25697   25700   25691   25694   25697   25699
   25691   25694   25697   25698   25692   25691   25694   25697
   25692   25691   25694   25696   25692   25691   25694   25695
   25693   25691   25694   25697   25693   25691   25694   25696
   25693   25691   25694   25695   25694   25697   25700   25703
   25694   25697   25700   25702   25694   25697   25700   25701
   25695   25694   25697   25700   25695   25694   25697   25699
   25695   25694   25697   25698   25696   25694   25697   25700
   25696   25694   25697   25699   25696   25694   25697   25698
   25697   25700   25703   25706   25697   25700   25703   25705
   25697   25700   25703   25704   25698   25697   25700   25703
   25698   25697   25700   25702   25698   25697   25700   25701
   25699   25697   25700   25703   25699   25697   25700   25702
   25699   25697   25700   25701   25700   25703   25706   25709
   25700   25703   25706   25708   25700   25703   25706   25707
   25701   25700   25703   25706   25701   25700   25703   25705
   25701   25700   25703   25704   25702   25700   25703   25706
   25702   25700   25703   25705   25702   25700   25703   25704
   25704   25703   25706   25709   25704   25703   25706   25708
   25704   25703   25706   25707   25705   25703   25706   25709
   25705   25703   25706   25708   25705   25703   25706   25707
   25710   25713   25716   25719   25710   25713   25716   25718
   25710   25713   25716   25717   25711   25710   25713   25716
   25711   25710   25713   25715   25711   25710   25713   25714
   25712   25710   25713   25716   25712   25710   25713   25715
   25712   25710   25713   25714   25713   25716   25719   25722
   25713   25716   25719   25721   25713   25716   25719   25720
   25714   25713   25716   25719   25714   25713   25716   25718
   25714   25713   25716   25717   25715   25713   25716   25719
   25715   25713   25716   25718   25715   25713   25716   25717
   25716   25719   25722   25725   25716   25719   25722   25724
   25716   25719   25722   25723   25717   25716   25719   25722
   25717   25716   25719   25721   25717   25716   25719   25720
   25718   25716   25719   25722   25718   25716   25719   25721
   25718   25716   25719   25720   25719   25722   25725   25728
   25719   25722   25725   25727   25719   25722   25725   25726
   25720   25719   25722   25725   25720   25719   25722   25724
   25720   25719   25722   25723   25721   25719   25722   25725
   25721   25719   25722   25724   25721   25719   25722   25723
   25722   25725   25728   25731   25722   25725   25728   25730
   25722   25725   25728   25729   25723   25722   25725   25728
   25723   25722   25725   25727   25723   25722   25725   25726
   25724   25722   25725   25728   25724   25722   25725   25727
   25724   25722   25725   25726   25725   25728   25731   25734
   25725   25728   25731   25733   25725   25728   25731   25732
   25726   25725   25728   25731   25726   25725   25728   25730
   25726   25725   25728   25729   25727   25725   25728   25731
   25727   25725   25728   25730   25727   25725   25728   25729
   25728   25731   25734   25737   25728   25731   25734   25736
   25728   25731   25734   25735   25729   25728   25731   25734
   25729   25728   25731   25733   25729   25728   25731   25732
   25730   25728   25731   25734   25730   25728   25731   25733
   25730   25728   25731   25732   25731   25734   25737   25740
   25731   25734   25737   25739   25731   25734   25737   25738
   25732   25731   25734   25737   25732   25731   25734   25736
   25732   25731   25734   25735   25733   25731   25734   25737
   25733   25731   25734   25736   25733   25731   25734   25735
   25734   25737   25740   25743   25734   25737   25740   25742
   25734   25737   25740   25741   25735   25734   25737   25740
   25735   25734   25737   25739   25735   25734   25737   25738
   25736   25734   25737   25740   25736   25734   25737   25739
   25736   25734   25737   25738   25737   25740   25743   25746
   25737   25740   25743   25745   25737   25740   25743   25744
   25738   25737   25740   25743   25738   25737   25740   25742
   25738   25737   25740   25741   25739   25737   25740   25743
   25739   25737   25740   25742   25739   25737   25740   25741
   25740   25743   25746   25749   25740   25743   25746   25748
   25740   25743   25746   25747   25741   25740   25743   25746
   25741   25740   25743   25745   25741   25740   25743   25744
   25742   25740   25743   25746   25742   25740   25743   25745
   25742   25740   25743   25744   25743   25746   25749   25752
   25743   25746   25749   25751   25743   25746   25749   25750
   25744   25743   25746   25749   25744   25743   25746   25748
   25744   25743   25746   25747   25745   25743   25746   25749
   25745   25743   25746   25748   25745   25743   25746   25747
   25747   25746   25749   25752   25747   25746   25749   25751
   25747   25746   25749   25750   25748   25746   25749   25752
   25748   25746   25749   25751   25748   25746   25749   25750
   25753   25754   25769   25775   25753   25754   25769   25771
   25753   25754   25769   25770   25754   25769   25775   25772
   25754   25753   25765   25768   25754   25753   25765   25767
   25754   25753   25765   25766   25754   25753   25761   25764
   25754   25753   25761   25763   25754   25753   25761   25762
   25754   25753   25757   25760   25754   25753   25757   25759
   25754   25753   25757   25758   25755   25754   25769   25775
   25755   25754   25769   25771   25755   25754   25769   25770
   25765   25753   25754   25755   25761   25753   25754   25755
   25757   25753   25754   25755   25756   25754   25769   25775
   25756   25754   25769   25771   25756   25754   25769   25770
   25765   25753   25754   25756   25761   25753   25754   25756
   25757   25753   25754   25756   25757   25753   25754   25769
   25757   25753   25765   25768   25757   25753   25765   25767
   25757   25753   25765   25766   25757   25753   25761   25764
   25757   25753   25761   25763   25757   25753   25761   25762
   25765   25753   25757   25758   25761   25753   25757   25758
   25765   25753   25757   25759   25761   25753   25757   25759
   25765   25753   25757   25760   25761   25753   25757   25760
   25761   25753   25754   25769   25761   25753   25765   25768
   25761   25753   25765   25767   25761   25753   25765   25766
   25765   25753   25761   25762   25765   25753   25761   25763
   25765   25753   25761   25764   25765   25753   25754   25769
   25774   25772   25775   25769   25773   25772   25775   25769
   25776   25772   25775   25769   25770   25769   25775   25772
   25771   25769   25775   25772   25772   25776   25777   25780
   25772   25776   25777   25779   25772   25776   25777   25778
   25773   25772   25776   25777   25774   25772   25776   25777
   25775   25772   25776   25777   25776   25777   25780   25782
   25776   25777   25780   25788   25776   25777   25780   25781
   25777   25780   25782   25783   25777   25780   25788   25791
   25777   25780   25788   25790   25777   25780   25788   25789
   25778   25777   25780   25782   25778   25777   25780   25788
   25778   25777   25780   25781   25779   25777   25780   25782
   25779   25777   25780   25788   25779   25777   25780   25781
   25780   25782   25783   25784   25780   25782   25783   25785
   25780   25788   25791   25792   25781   25780   25782   25783
   25781   25780   25788   25791   25781   25780   25788   25790
   25781   25780   25788   25789   25782   25783   25785   25797
   25782   25783   25785   25787   25782   25783   25785   25786
   25782   25780   25788   25791   25782   25780   25788   25790
   25782   25780   25788   25789   25783   25785   25797   25800
   25783   25785   25797   25799   25783   25785   25797   25798
   25788   25780   25782   25783   25784   25783   25785   25797
   25784   25783   25785   25787   25784   25783   25785   25786
   25785   25797   25800   25803   25785   25797   25800   25802
   25785   25797   25800   25801   25786   25785   25797   25800
   25786   25785   25797   25799   25786   25785   25797   25798
   25787   25785   25797   25800   25787   25785   25797   25799
   25787   25785   25797   25798   25788   25791   25792   25793
   25788   25791   25792   25794   25789   25788   25791   25792
   25790   25788   25791   25792   25791   25792   25794   25844
   25791   25792   25794   25796   25791   25792   25794   25795
   25792   25794   25844   25847   25792   25794   25844   25846
   25792   25794   25844   25845   25793   25792   25794   25844
   25793   25792   25794   25796   25793   25792   25794   25795
   25794   25844   25847   25850   25794   25844   25847   25849
   25794   25844   25847   25848   25795   25794   25844   25847
   25795   25794   25844   25846   25795   25794   25844   25845
   25796   25794   25844   25847   25796   25794   25844   25846
   25796   25794   25844   25845   25797   25800   25803   25806
   25797   25800   25803   25805   25797   25800   25803   25804
   25798   25797   25800   25803   25798   25797   25800   25802
   25798   25797   25800   25801   25799   25797   25800   25803
   25799   25797   25800   25802   25799   25797   25800   25801
   25800   25803   25806   25809   25800   25803   25806   25808
   25800   25803   25806   25807   25801   25800   25803   25806
   25801   25800   25803   25805   25801   25800   25803   25804
   25802   25800   25803   25806   25802   25800   25803   25805
   25802   25800   25803   25804   25803   25806   25809   25812
   25803   25806   25809   25811   25803   25806   25809   25810
   25804   25803   25806   25809   25804   25803   25806   25808
   25804   25803   25806   25807   25805   25803   25806   25809
   25805   25803   25806   25808   25805   25803   25806   25807
   25806   25809   25812   25815   25806   25809   25812   25814
   25806   25809   25812   25813   25807   25806   25809   25812
   25807   25806   25809   25811   25807   25806   25809   25810
   25808   25806   25809   25812   25808   25806   25809   25811
   25808   25806   25809   25810   25809   25812   25815   25817
   25809   25812   25815   25816   25810   25809   25812   25815
   25810   25809   25812   25814   25810   25809   25812   25813
   25811   25809   25812   25815   25811   25809   25812   25814
   25811   25809   25812   25813   25812   25815   25817   25819
   25812   25815   25817   25818   25813   25812   25815   25817
   25813   25812   25815   25816   25814   25812   25815   25817
   25814   25812   25815   25816   25815   25817   25819   25822
   25815   25817   25819   25821   25815   25817   25819   25820
   25816   25815   25817   25819   25816   25815   25817   25818
   25817   25819   25822   25825   25817   25819   25822   25824
   25817   25819   25822   25823   25818   25817   25819   25822
   25818   25817   25819   25821   25818   25817   25819   25820
   25819   25822   25825   25828   25819   25822   25825   25827
   25819   25822   25825   25826   25820   25819   25822   25825
   25820   25819   25822   25824   25820   25819   25822   25823
   25821   25819   25822   25825   25821   25819   25822   25824
   25821   25819   25822   25823   25822   25825   25828   25831
   25822   25825   25828   25830   25822   25825   25828   25829
   25823   25822   25825   25828   25823   25822   25825   25827
   25823   25822   25825   25826   25824   25822   25825   25828
   25824   25822   25825   25827   25824   25822   25825   25826
   25825   25828   25831   25834   25825   25828   25831   25833
   25825   25828   25831   25832   25826   25825   25828   25831
   25826   25825   25828   25830   25826   25825   25828   25829
   25827   25825   25828   25831   25827   25825   25828   25830
   25827   25825   25828   25829   25828   25831   25834   25837
   25828   25831   25834   25836   25828   25831   25834   25835
   25829   25828   25831   25834   25829   25828   25831   25833
   25829   25828   25831   25832   25830   25828   25831   25834
   25830   25828   25831   25833   25830   25828   25831   25832
   25831   25834   25837   25840   25831   25834   25837   25839
   25831   25834   25837   25838   25832   25831   25834   25837
   25832   25831   25834   25836   25832   25831   25834   25835
   25833   25831   25834   25837   25833   25831   25834   25836
   25833   25831   25834   25835   25834   25837   25840   25843
   25834   25837   25840   25842   25834   25837   25840   25841
   25835   25834   25837   25840   25835   25834   25837   25839
   25835   25834   25837   25838   25836   25834   25837   25840
   25836   25834   25837   25839   25836   25834   25837   25838
   25838   25837   25840   25843   25838   25837   25840   25842
   25838   25837   25840   25841   25839   25837   25840   25843
   25839   25837   25840   25842   25839   25837   25840   25841
   25844   25847   25850   25853   25844   25847   25850   25852
   25844   25847   25850   25851   25845   25844   25847   25850
   25845   25844   25847   25849   25845   25844   25847   25848
   25846   25844   25847   25850   25846   25844   25847   25849
   25846   25844   25847   25848   25847   25850   25853   25856
   25847   25850   25853   25855   25847   25850   25853   25854
   25848   25847   25850   25853   25848   25847   25850   25852
   25848   25847   25850   25851   25849   25847   25850   25853
   25849   25847   25850   25852   25849   25847   25850   25851
   25850   25853   25856   25859   25850   25853   25856   25858
   25850   25853   25856   25857   25851   25850   25853   25856
   25851   25850   25853   25855   25851   25850   25853   25854
   25852   25850   25853   25856   25852   25850   25853   25855
   25852   25850   25853   25854   25853   25856   25859   25862
   25853   25856   25859   25861   25853   25856   25859   25860
   25854   25853   25856   25859   25854   25853   25856   25858
   25854   25853   25856   25857   25855   25853   25856   25859
   25855   25853   25856   25858   25855   25853   25856   25857
   25856   25859   25862   25865   25856   25859   25862   25864
   25856   25859   25862   25863   25857   25856   25859   25862
   25857   25856   25859   25861   25857   25856   25859   25860
   25858   25856   25859   25862   25858   25856   25859   25861
   25858   25856   25859   25860   25859   25862   25865   25868
   25859   25862   25865   25867   25859   25862   25865   25866
   25860   25859   25862   25865   25860   25859   25862   25864
   25860   25859   25862   25863   25861   25859   25862   25865
   25861   25859   25862   25864   25861   25859   25862   25863
   25862   25865   25868   25871   25862   25865   25868   25870
   25862   25865   25868   25869   25863   25862   25865   25868
   25863   25862   25865   25867   25863   25862   25865   25866
   25864   25862   25865   25868   25864   25862   25865   25867
   25864   25862   25865   25866   25865   25868   25871   25874
   25865   25868   25871   25873   25865   25868   25871   25872
   25866   25865   25868   25871   25866   25865   25868   25870
   25866   25865   25868   25869   25867   25865   25868   25871
   25867   25865   25868   25870   25867   25865   25868   25869
   25868   25871   25874   25877   25868   25871   25874   25876
   25868   25871   25874   25875   25869   25868   25871   25874
   25869   25868   25871   25873   25869   25868   25871   25872
   25870   25868   25871   25874   25870   25868   25871   25873
   25870   25868   25871   25872   25871   25874   25877   25880
   25871   25874   25877   25879   25871   25874   25877   25878
   25872   25871   25874   25877   25872   25871   25874   25876
   25872   25871   25874   25875   25873   25871   25874   25877
   25873   25871   25874   25876   25873   25871   25874   25875
   25874   25877   25880   25883   25874   25877   25880   25882
   25874   25877   25880   25881   25875   25874   25877   25880
   25875   25874   25877   25879   25875   25874   25877   25878
   25876   25874   25877   25880   25876   25874   25877   25879
   25876   25874   25877   25878   25877   25880   25883   25886
   25877   25880   25883   25885   25877   25880   25883   25884
   25878   25877   25880   25883   25878   25877   25880   25882
   25878   25877   25880   25881   25879   25877   25880   25883
   25879   25877   25880   25882   25879   25877   25880   25881
   25881   25880   25883   25886   25881   25880   25883   25885
   25881   25880   25883   25884   25882   25880   25883   25886
   25882   25880   25883   25885   25882   25880   25883   25884
   25887   25891   25894   25901   25887   25891   25894   25896
   25887   25891   25894   25895   25888   25887   25891   25894
   25888   25887   25891   25893   25888   25887   25891   25892
   25889   25887   25891   25894   25889   25887   25891   25893
   25889   25887   25891   25892   25890   25887   25891   25894
   25890   25887   25891   25893   25890   25887   25891   25892
   25891   25894   25901   25897   25892   25891   25894   25901
   25892   25891   25894   25896   25892   25891   25894   25895
   25893   25891   25894   25901   25893   25891   25894   25896
   25893   25891   25894   25895   25899   25897   25901   25894
   25898   25897   25901   25894   25900   25897   25901   25894
   25895   25894   25901   25897   25896   25894   25901   25897
   25897   25900   25902   25905   25897   25900   25902   25904
   25897   25900   25902   25903   25898   25897   25900   25902
   25899   25897   25900   25902   25900   25902   25905   25907
   25900   25902   25905   25913   25900   25902   25905   25906
   25901   25897   25900   25902   25902   25905   25907   25908
   25902   25905   25913   25916   25902   25905   25913   25915
   25902   25905   25913   25914   25903   25902   25905   25907
   25903   25902   25905   25913   25903   25902   25905   25906
   25904   25902   25905   25907   25904   25902   25905   25913
   25904   25902   25905   25906   25905   25907   25908   25909
   25905   25907   25908   25910   25905   25913   25916   25917
   25906   25905   25907   25908   25906   25905   25913   25916
   25906   25905   25913   25915   25906   25905   25913   25914
   25907   25908   25910   25922   25907   25908   25910   25912
   25907   25908   25910   25911   25907   25905   25913   25916
   25907   25905   25913   25915   25907   25905   25913   25914
   25908   25910   25922   25925   25908   25910   25922   25924
   25908   25910   25922   25923   25913   25905   25907   25908
   25909   25908   25910   25922   25909   25908   25910   25912
   25909   25908   25910   25911   25910   25922   25925   25928
   25910   25922   25925   25927   25910   25922   25925   25926
   25911   25910   25922   25925   25911   25910   25922   25924
   25911   25910   25922   25923   25912   25910   25922   25925
   25912   25910   25922   25924   25912   25910   25922   25923
   25913   25916   25917   25918   25913   25916   25917   25919
   25914   25913   25916   25917   25915   25913   25916   25917
   25916   25917   25919   25969   25916   25917   25919   25921
   25916   25917   25919   25920   25917   25919   25969   25972
   25917   25919   25969   25971   25917   25919   25969   25970
   25918   25917   25919   25969   25918   25917   25919   25921
   25918   25917   25919   25920   25919   25969   25972   25975
   25919   25969   25972   25974   25919   25969   25972   25973
   25920   25919   25969   25972   25920   25919   25969   25971
   25920   25919   25969   25970   25921   25919   25969   25972
   25921   25919   25969   25971   25921   25919   25969   25970
   25922   25925   25928   25931   25922   25925   25928   25930
   25922   25925   25928   25929   25923   25922   25925   25928
   25923   25922   25925   25927   25923   25922   25925   25926
   25924   25922   25925   25928   25924   25922   25925   25927
   25924   25922   25925   25926   25925   25928   25931   25934
   25925   25928   25931   25933   25925   25928   25931   25932
   25926   25925   25928   25931   25926   25925   25928   25930
   25926   25925   25928   25929   25927   25925   25928   25931
   25927   25925   25928   25930   25927   25925   25928   25929
   25928   25931   25934   25937   25928   25931   25934   25936
   25928   25931   25934   25935   25929   25928   25931   25934
   25929   25928   25931   25933   25929   25928   25931   25932
   25930   25928   25931   25934   25930   25928   25931   25933
   25930   25928   25931   25932   25931   25934   25937   25940
   25931   25934   25937   25939   25931   25934   25937   25938
   25932   25931   25934   25937   25932   25931   25934   25936
   25932   25931   25934   25935   25933   25931   25934   25937
   25933   25931   25934   25936   25933   25931   25934   25935
   25934   25937   25940   25942   25934   25937   25940   25941
   25935   25934   25937   25940   25935   25934   25937   25939
   25935   25934   25937   25938   25936   25934   25937   25940
   25936   25934   25937   25939   25936   25934   25937   25938
   25937   25940   25942   25944   25937   25940   25942   25943
   25938   25937   25940   25942   25938   25937   25940   25941
   25939   25937   25940   25942   25939   25937   25940   25941
   25940   25942   25944   25947   25940   25942   25944   25946
   25940   25942   25944   25945   25941   25940   25942   25944
   25941   25940   25942   25943   25942   25944   25947   25950
   25942   25944   25947   25949   25942   25944   25947   25948
   25943   25942   25944   25947   25943   25942   25944   25946
   25943   25942   25944   25945   25944   25947   25950   25953
   25944   25947   25950   25952   25944   25947   25950   25951
   25945   25944   25947   25950   25945   25944   25947   25949
   25945   25944   25947   25948   25946   25944   25947   25950
   25946   25944   25947   25949   25946   25944   25947   25948
   25947   25950   25953   25956   25947   25950   25953   25955
   25947   25950   25953   25954   25948   25947   25950   25953
   25948   25947   25950   25952   25948   25947   25950   25951
   25949   25947   25950   25953   25949   25947   25950   25952
   25949   25947   25950   25951   25950   25953   25956   25959
   25950   25953   25956   25958   25950   25953   25956   25957
   25951   25950   25953   25956   25951   25950   25953   25955
   25951   25950   25953   25954   25952   25950   25953   25956
   25952   25950   25953   25955   25952   25950   25953   25954
   25953   25956   25959   25962   25953   25956   25959   25961
   25953   25956   25959   25960   25954   25953   25956   25959
   25954   25953   25956   25958   25954   25953   25956   25957
   25955   25953   25956   25959   25955   25953   25956   25958
   25955   25953   25956   25957   25956   25959   25962   25965
   25956   25959   25962   25964   25956   25959   25962   25963
   25957   25956   25959   25962   25957   25956   25959   25961
   25957   25956   25959   25960   25958   25956   25959   25962
   25958   25956   25959   25961   25958   25956   25959   25960
   25959   25962   25965   25968   25959   25962   25965   25967
   25959   25962   25965   25966   25960   25959   25962   25965
   25960   25959   25962   25964   25960   25959   25962   25963
   25961   25959   25962   25965   25961   25959   25962   25964
   25961   25959   25962   25963   25963   25962   25965   25968
   25963   25962   25965   25967   25963   25962   25965   25966
   25964   25962   25965   25968   25964   25962   25965   25967
   25964   25962   25965   25966   25969   25972   25975   25978
   25969   25972   25975   25977   25969   25972   25975   25976
   25970   25969   25972   25975   25970   25969   25972   25974
   25970   25969   25972   25973   25971   25969   25972   25975
   25971   25969   25972   25974   25971   25969   25972   25973
   25972   25975   25978   25981   25972   25975   25978   25980
   25972   25975   25978   25979   25973   25972   25975   25978
   25973   25972   25975   25977   25973   25972   25975   25976
   25974   25972   25975   25978   25974   25972   25975   25977
   25974   25972   25975   25976   25975   25978   25981   25984
   25975   25978   25981   25983   25975   25978   25981   25982
   25976   25975   25978   25981   25976   25975   25978   25980
   25976   25975   25978   25979   25977   25975   25978   25981
   25977   25975   25978   25980   25977   25975   25978   25979
   25978   25981   25984   25987   25978   25981   25984   25986
   25978   25981   25984   25985   25979   25978   25981   25984
   25979   25978   25981   25983   25979   25978   25981   25982
   25980   25978   25981   25984   25980   25978   25981   25983
   25980   25978   25981   25982   25981   25984   25987   25990
   25981   25984   25987   25989   25981   25984   25987   25988
   25982   25981   25984   25987   25982   25981   25984   25986
   25982   25981   25984   25985   25983   25981   25984   25987
   25983   25981   25984   25986   25983   25981   25984   25985
   25984   25987   25990   25993   25984   25987   25990   25992
   25984   25987   25990   25991   25985   25984   25987   25990
   25985   25984   25987   25989   25985   25984   25987   25988
   25986   25984   25987   25990   25986   25984   25987   25989
   25986   25984   25987   25988   25987   25990   25993   25996
   25987   25990   25993   25995   25987   25990   25993   25994
   25988   25987   25990   25993   25988   25987   25990   25992
   25988   25987   25990   25991   25989   25987   25990   25993
   25989   25987   25990   25992   25989   25987   25990   25991
   25990   25993   25996   25999   25990   25993   25996   25998
   25990   25993   25996   25997   25991   25990   25993   25996
   25991   25990   25993   25995   25991   25990   25993   25994
   25992   25990   25993   25996   25992   25990   25993   25995
   25992   25990   25993   25994   25993   25996   25999   26002
   25993   25996   25999   26001   25993   25996   25999   26000
   25994   25993   25996   25999   25994   25993   25996   25998
   25994   25993   25996   25997   25995   25993   25996   25999
   25995   25993   25996   25998   25995   25993   25996   25997
   25996   25999   26002   26005   25996   25999   26002   26004
   25996   25999   26002   26003   25997   25996   25999   26002
   25997   25996   25999   26001   25997   25996   25999   26000
   25998   25996   25999   26002   25998   25996   25999   26001
   25998   25996   25999   26000   25999   26002   26005   26008
   25999   26002   26005   26007   25999   26002   26005   26006
   26000   25999   26002   26005   26000   25999   26002   26004
   26000   25999   26002   26003   26001   25999   26002   26005
   26001   25999   26002   26004   26001   25999   26002   26003
   26002   26005   26008   26011   26002   26005   26008   26010
   26002   26005   26008   26009   26003   26002   26005   26008
   26003   26002   26005   26007   26003   26002   26005   26006
   26004   26002   26005   26008   26004   26002   26005   26007
   26004   26002   26005   26006   26006   26005   26008   26011
   26006   26005   26008   26010   26006   26005   26008   26009
   26007   26005   26008   26011   26007   26005   26008   26010
   26007   26005   26008   26009   26012   26016   26019   26026
   26012   26016   26019   26021   26012   26016   26019   26020
   26013   26012   26016   26019   26013   26012   26016   26018
   26013   26012   26016   26017   26014   26012   26016   26019
   26014   26012   26016   26018   26014   26012   26016   26017
   26015   26012   26016   26019   26015   26012   26016   26018
   26015   26012   26016   26017   26016   26019   26026   26022
   26017   26016   26019   26026   26017   26016   26019   26021
   26017   26016   26019   26020   26018   26016   26019   26026
   26018   26016   26019   26021   26018   26016   26019   26020
   26024   26022   26026   26019   26023   26022   26026   26019
   26025   26022   26026   26019   26020   26019   26026   26022
   26021   26019   26026   26022   26022   26025   26027   26030
   26022   26025   26027   26029   26022   26025   26027   26028
   26023   26022   26025   26027   26024   26022   26025   26027
   26025   26027   26030   26032   26025   26027   26030   26038
   26025   26027   26030   26031   26026   26022   26025   26027
   26027   26030   26032   26033   26027   26030   26038   26041
   26027   26030   26038   26040   26027   26030   26038   26039
   26028   26027   26030   26032   26028   26027   26030   26038
   26028   26027   26030   26031   26029   26027   26030   26032
   26029   26027   26030   26038   26029   26027   26030   26031
   26030   26032   26033   26034   26030   26032   26033   26035
   26030   26038   26041   26042   26031   26030   26032   26033
   26031   26030   26038   26041   26031   26030   26038   26040
   26031   26030   26038   26039   26032   26033   26035   26047
   26032   26033   26035   26037   26032   26033   26035   26036
   26032   26030   26038   26041   26032   26030   26038   26040
   26032   26030   26038   26039   26033   26035   26047   26050
   26033   26035   26047   26049   26033   26035   26047   26048
   26038   26030   26032   26033   26034   26033   26035   26047
   26034   26033   26035   26037   26034   26033   26035   26036
   26035   26047   26050   26053   26035   26047   26050   26052
   26035   26047   26050   26051   26036   26035   26047   26050
   26036   26035   26047   26049   26036   26035   26047   26048
   26037   26035   26047   26050   26037   26035   26047   26049
   26037   26035   26047   26048   26038   26041   26042   26043
   26038   26041   26042   26044   26039   26038   26041   26042
   26040   26038   26041   26042   26041   26042   26044   26094
   26041   26042   26044   26046   26041   26042   26044   26045
   26042   26044   26094   26097   26042   26044   26094   26096
   26042   26044   26094   26095   26043   26042   26044   26094
   26043   26042   26044   26046   26043   26042   26044   26045
   26044   26094   26097   26100   26044   26094   26097   26099
   26044   26094   26097   26098   26045   26044   26094   26097
   26045   26044   26094   26096   26045   26044   26094   26095
   26046   26044   26094   26097   26046   26044   26094   26096
   26046   26044   26094   26095   26047   26050   26053   26056
   26047   26050   26053   26055   26047   26050   26053   26054
   26048   26047   26050   26053   26048   26047   26050   26052
   26048   26047   26050   26051   26049   26047   26050   26053
   26049   26047   26050   26052   26049   26047   26050   26051
   26050   26053   26056   26059   26050   26053   26056   26058
   26050   26053   26056   26057   26051   26050   26053   26056
   26051   26050   26053   26055   26051   26050   26053   26054
   26052   26050   26053   26056   26052   26050   26053   26055
   26052   26050   26053   26054   26053   26056   26059   26062
   26053   26056   26059   26061   26053   26056   26059   26060
   26054   26053   26056   26059   26054   26053   26056   26058
   26054   26053   26056   26057   26055   26053   26056   26059
   26055   26053   26056   26058   26055   26053   26056   26057
   26056   26059   26062   26065   26056   26059   26062   26064
   26056   26059   26062   26063   26057   26056   26059   26062
   26057   26056   26059   26061   26057   26056   26059   26060
   26058   26056   26059   26062   26058   26056   26059   26061
   26058   26056   26059   26060   26059   26062   26065   26067
   26059   26062   26065   26066   26060   26059   26062   26065
   26060   26059   26062   26064   26060   26059   26062   26063
   26061   26059   26062   26065   26061   26059   26062   26064
   26061   26059   26062   26063   26062   26065   26067   26069
   26062   26065   26067   26068   26063   26062   26065   26067
   26063   26062   26065   26066   26064   26062   26065   26067
   26064   26062   26065   26066   26065   26067   26069   26072
   26065   26067   26069   26071   26065   26067   26069   26070
   26066   26065   26067   26069   26066   26065   26067   26068
   26067   26069   26072   26075   26067   26069   26072   26074
   26067   26069   26072   26073   26068   26067   26069   26072
   26068   26067   26069   26071   26068   26067   26069   26070
   26069   26072   26075   26078   26069   26072   26075   26077
   26069   26072   26075   26076   26070   26069   26072   26075
   26070   26069   26072   26074   26070   26069   26072   26073
   26071   26069   26072   26075   26071   26069   26072   26074
   26071   26069   26072   26073   26072   26075   26078   26081
   26072   26075   26078   26080   26072   26075   26078   26079
   26073   26072   26075   26078   26073   26072   26075   26077
   26073   26072   26075   26076   26074   26072   26075   26078
   26074   26072   26075   26077   26074   26072   26075   26076
   26075   26078   26081   26084   26075   26078   26081   26083
   26075   26078   26081   26082   26076   26075   26078   26081
   26076   26075   26078   26080   26076   26075   26078   26079
   26077   26075   26078   26081   26077   26075   26078   26080
   26077   26075   26078   26079   26078   26081   26084   26087
   26078   26081   26084   26086   26078   26081   26084   26085
   26079   26078   26081   26084   26079   26078   26081   26083
   26079   26078   26081   26082   26080   26078   26081   26084
   26080   26078   26081   26083   26080   26078   26081   26082
   26081   26084   26087   26090   26081   26084   26087   26089
   26081   26084   26087   26088   26082   26081   26084   26087
   26082   26081   26084   26086   26082   26081   26084   26085
   26083   26081   26084   26087   26083   26081   26084   26086
   26083   26081   26084   26085   26084   26087   26090   26093
   26084   26087   26090   26092   26084   26087   26090   26091
   26085   26084   26087   26090   26085   26084   26087   26089
   26085   26084   26087   26088   26086   26084   26087   26090
   26086   26084   26087   26089   26086   26084   26087   26088
   26088   26087   26090   26093   26088   26087   26090   26092
   26088   26087   26090   26091   26089   26087   26090   26093
   26089   26087   26090   26092   26089   26087   26090   26091
   26094   26097   26100   26103   26094   26097   26100   26102
   26094   26097   26100   26101   26095   26094   26097   26100
   26095   26094   26097   26099   26095   26094   26097   26098
   26096   26094   26097   26100   26096   26094   26097   26099
   26096   26094   26097   26098   26097   26100   26103   26106
   26097   26100   26103   26105   26097   26100   26103   26104
   26098   26097   26100   26103   26098   26097   26100   26102
   26098   26097   26100   26101   26099   26097   26100   26103
   26099   26097   26100   26102   26099   26097   26100   26101
   26100   26103   26106   26109   26100   26103   26106   26108
   26100   26103   26106   26107   26101   26100   26103   26106
   26101   26100   26103   26105   26101   26100   26103   26104
   26102   26100   26103   26106   26102   26100   26103   26105
   26102   26100   26103   26104   26103   26106   26109   26112
   26103   26106   26109   26111   26103   26106   26109   26110
   26104   26103   26106   26109   26104   26103   26106   26108
   26104   26103   26106   26107   26105   26103   26106   26109
   26105   26103   26106   26108   26105   26103   26106   26107
   26106   26109   26112   26115   26106   26109   26112   26114
   26106   26109   26112   26113   26107   26106   26109   26112
   26107   26106   26109   26111   26107   26106   26109   26110
   26108   26106   26109   26112   26108   26106   26109   26111
   26108   26106   26109   26110   26109   26112   26115   26118
   26109   26112   26115   26117   26109   26112   26115   26116
   26110   26109   26112   26115   26110   26109   26112   26114
   26110   26109   26112   26113   26111   26109   26112   26115
   26111   26109   26112   26114   26111   26109   26112   26113
   26112   26115   26118   26121   26112   26115   26118   26120
   26112   26115   26118   26119   26113   26112   26115   26118
   26113   26112   26115   26117   26113   26112   26115   26116
   26114   26112   26115   26118   26114   26112   26115   26117
   26114   26112   26115   26116   26115   26118   26121   26124
   26115   26118   26121   26123   26115   26118   26121   26122
   26116   26115   26118   26121   26116   26115   26118   26120
   26116   26115   26118   26119   26117   26115   26118   26121
   26117   26115   26118   26120   26117   26115   26118   26119
   26118   26121   26124   26127   26118   26121   26124   26126
   26118   26121   26124   26125   26119   26118   26121   26124
   26119   26118   26121   26123   26119   26118   26121   26122
   26120   26118   26121   26124   26120   26118   26121   26123
   26120   26118   26121   26122   26121   26124   26127   26130
   26121   26124   26127   26129   26121   26124   26127   26128
   26122   26121   26124   26127   26122   26121   26124   26126
   26122   26121   26124   26125   26123   26121   26124   26127
   26123   26121   26124   26126   26123   26121   26124   26125
   26124   26127   26130   26133   26124   26127   26130   26132
   26124   26127   26130   26131   26125   26124   26127   26130
   26125   26124   26127   26129   26125   26124   26127   26128
   26126   26124   26127   26130   26126   26124   26127   26129
   26126   26124   26127   26128   26127   26130   26133   26136
   26127   26130   26133   26135   26127   26130   26133   26134
   26128   26127   26130   26133   26128   26127   26130   26132
   26128   26127   26130   26131   26129   26127   26130   26133
   26129   26127   26130   26132   26129   26127   26130   26131
   26131   26130   26133   26136   26131   26130   26133   26135
   26131   26130   26133   26134   26132   26130   26133   26136
   26132   26130   26133   26135   26132   26130   26133   26134
   26137   26150   26153   26155   26137   26150   26153   26154
   26137   26150   26153   26160   26138   26137   26142   26145
   26138   26137   26142   26144   26138   26137   26142   26143
   26138   26137   26146   26149   26138   26137   26146   26148
   26138   26137   26146   26147   26138   26137   26150   26152
   26138   26137   26150   26151   26138   26137   26150   26153
   26142   26137   26138   26139   26146   26137   26138   26139
   26150   26137   26138   26139   26142   26137   26138   26140
   26146   26137   26138   26140   26150   26137   26138   26140
   26142   26137   26138   26141   26146   26137   26138   26141
   26150   26137   26138   26141   26142   26137   26146   26149
   26142   26137   26146   26148   26142   26137   26146   26147
   26142   26137   26150   26152   26142   26137   26150   26151
   26142   26137   26150   26153   26146   26137   26142   26143
   26150   26137   26142   26143   26146   26137   26142   26144
   26150   26137   26142   26144   26146   26137   26142   26145
   26150   26137   26142   26145   26146   26137   26150   26152
   26146   26137   26150   26151   26146   26137   26150   26153
   26150   26137   26146   26147   26150   26137   26146   26148
   26150   26137   26146   26149   26150   26153   26160   26156
   26151   26150   26153   26155   26151   26150   26153   26154
   26151   26150   26153   26160   26152   26150   26153   26155
   26152   26150   26153   26154   26152   26150   26153   26160
   26158   26156   26160   26153   26157   26156   26160   26153
   26159   26156   26160   26153   26154   26153   26160   26156
   26155   26153   26160   26156   26156   26159   26161   26163
   26156   26159   26161   26162   26156   26159   26161   26166
   26157   26156   26159   26161   26158   26156   26159   26161
   26159   26161   26166   26164   26159   26161   26166   26167
   26159   26161   26166   26168   26160   26156   26159   26161
   26216   26164   26166   26161   26165   26164   26166   26161
   26161   26166   26168   26170   26161   26166   26168   26169
   26161   26166   26168   26172   26162   26161   26166   26164
   26162   26161   26166   26167   26162   26161   26166   26168
   26163   26161   26166   26164   26163   26161   26166   26167
   26163   26161   26166   26168   26164   26216   26218   26221
   26164   26216   26218   26220   26164   26216   26218   26219
   26164   26166   26168   26170   26164   26166   26168   26169
   26164   26166   26168   26172   26165   26164   26216   26217
   26165   26164   26216   26218   26165   26164   26166   26167
   26165   26164   26166   26168   26166   26164   26216   26217
   26166   26164   26216   26218   26166   26168   26170   26171
   26166   26168   26172   26174   26166   26168   26172   26173
   26216   26164   26166   26167   26167   26166   26168   26170
   26167   26166   26168   26169   26167   26166   26168   26172
   26216   26164   26166   26168   26168   26172   26174   26175
   26168   26172   26174   26176   26169   26168   26170   26171
   26169   26168   26172   26174   26169   26168   26172   26173
   26170   26168   26172   26174   26170   26168   26172   26173
   26172   26168   26170   26171   26172   26174   26176   26178
   26172   26174   26176   26177   26172   26174   26176   26179
   26173   26172   26174   26175   26173   26172   26174   26176
   26174   26176   26179   26181   26174   26176   26179   26180
   26174   26176   26179   26182   26175   26174   26176   26178
   26175   26174   26176   26177   26175   26174   26176   26179
   26176   26179   26182   26184   26176   26179   26182   26183
   26176   26179   26182   26185   26177   26176   26179   26181
   26177   26176   26179   26180   26177   26176   26179   26182
   26178   26176   26179   26181   26178   26176   26179   26180
   26178   26176   26179   26182   26179   26182   26185   26187
   26179   26182   26185   26186   26179   26182   26185   26188
   26180   26179   26182   26184   26180   26179   26182   26183
   26180   26179   26182   26185   26181   26179   26182   26184
   26181   26179   26182   26183   26181   26179   26182   26185
   26182   26185   26188   26190   26182   26185   26188   26189
   26182   26185   26188   26191   26183   26182   26185   26187
   26183   26182   26185   26186   26183   26182   26185   26188
   26184   26182   26185   26187   26184   26182   26185   26186
   26184   26182   26185   26188   26185   26188   26191   26193
   26185   26188   26191   26192   26185   26188   26191   26194
   26186   26185   26188   26190   26186   26185   26188   26189
   26186   26185   26188   26191   26187   26185   26188   26190
   26187   26185   26188   26189   26187   26185   26188   26191
   26188   26191   26194   26196   26188   26191   26194   26195
   26188   26191   26194   26197   26189   26188   26191   26193
   26189   26188   26191   26192   26189   26188   26191   26194
   26190   26188   26191   26193   26190   26188   26191   26192
   26190   26188   26191   26194   26191   26194   26197   26199
   26191   26194   26197   26198   26191   26194   26197   26200
   26192   26191   26194   26196   26192   26191   26194   26195
   26192   26191   26194   26197   26193   26191   26194   26196
   26193   26191   26194   26195   26193   26191   26194   26197
   26194   26197   26200   26202   26194   26197   26200   26201
   26194   26197   26200   26203   26195   26194   26197   26199
   26195   26194   26197   26198   26195   26194   26197   26200
   26196   26194   26197   26199   26196   26194   26197   26198
   26196   26194   26197   26200   26197   26200   26203   26205
   26197   26200   26203   26204   26197   26200   26203   26206
   26198   26197   26200   26202   26198   26197   26200   26201
   26198   26197   26200   26203   26199   26197   26200   26202
   26199   26197   26200   26201   26199   26197   26200   26203
   26200   26203   26206   26208   26200   26203   26206   26207
   26200   26203   26206   26209   26201   26200   26203   26205
   26201   26200   26203   26204   26201   26200   26203   26206
   26202   26200   26203   26205   26202   26200   26203   26204
   26202   26200   26203   26206   26203   26206   26209   26211
   26203   26206   26209   26210   26203   26206   26209   26212
   26204   26203   26206   26208   26204   26203   26206   26207
   26204   26203   26206   26209   26205   26203   26206   26208
   26205   26203   26206   26207   26205   26203   26206   26209
   26206   26209   26212   26215   26206   26209   26212   26214
   26206   26209   26212   26213   26207   26206   26209   26211
   26207   26206   26209   26210   26207   26206   26209   26212
   26208   26206   26209   26211   26208   26206   26209   26210
   26208   26206   26209   26212   26210   26209   26212   26215
   26210   26209   26212   26214   26210   26209   26212   26213
   26211   26209   26212   26215   26211   26209   26212   26214
   26211   26209   26212   26213   26216   26218   26221   26224
   26216   26218   26221   26223   26216   26218   26221   26222
   26217   26216   26218   26221   26217   26216   26218   26220
   26217   26216   26218   26219   26218   26221   26224   26227
   26218   26221   26224   26226   26218   26221   26224   26225
   26219   26218   26221   26224   26219   26218   26221   26223
   26219   26218   26221   26222   26220   26218   26221   26224
   26220   26218   26221   26223   26220   26218   26221   26222
   26221   26224   26227   26230   26221   26224   26227   26229
   26221   26224   26227   26228   26222   26221   26224   26227
   26222   26221   26224   26226   26222   26221   26224   26225
   26223   26221   26224   26227   26223   26221   26224   26226
   26223   26221   26224   26225   26224   26227   26230   26233
   26224   26227   26230   26232   26224   26227   26230   26231
   26225   26224   26227   26230   26225   26224   26227   26229
   26225   26224   26227   26228   26226   26224   26227   26230
   26226   26224   26227   26229   26226   26224   26227   26228
   26227   26230   26233   26236   26227   26230   26233   26235
   26227   26230   26233   26234   26228   26227   26230   26233
   26228   26227   26230   26232   26228   26227   26230   26231
   26229   26227   26230   26233   26229   26227   26230   26232
   26229   26227   26230   26231   26230   26233   26236   26239
   26230   26233   26236   26238   26230   26233   26236   26237
   26231   26230   26233   26236   26231   26230   26233   26235
   26231   26230   26233   26234   26232   26230   26233   26236
   26232   26230   26233   26235   26232   26230   26233   26234
   26233   26236   26239   26242   26233   26236   26239   26241
   26233   26236   26239   26240   26234   26233   26236   26239
   26234   26233   26236   26238   26234   26233   26236   26237
   26235   26233   26236   26239   26235   26233   26236   26238
   26235   26233   26236   26237   26236   26239   26242   26245
   26236   26239   26242   26244   26236   26239   26242   26243
   26237   26236   26239   26242   26237   26236   26239   26241
   26237   26236   26239   26240   26238   26236   26239   26242
   26238   26236   26239   26241   26238   26236   26239   26240
   26239   26242   26245   26248   26239   26242   26245   26247
   26239   26242   26245   26246   26240   26239   26242   26245
   26240   26239   26242   26244   26240   26239   26242   26243
   26241   26239   26242   26245   26241   26239   26242   26244
   26241   26239   26242   26243   26242   26245   26248   26251
   26242   26245   26248   26250   26242   26245   26248   26249
   26243   26242   26245   26248   26243   26242   26245   26247
   26243   26242   26245   26246   26244   26242   26245   26248
   26244   26242   26245   26247   26244   26242   26245   26246
   26245   26248   26251   26254   26245   26248   26251   26253
   26245   26248   26251   26252   26246   26245   26248   26251
   26246   26245   26248   26250   26246   26245   26248   26249
   26247   26245   26248   26251   26247   26245   26248   26250
   26247   26245   26248   26249   26248   26251   26254   26257
   26248   26251   26254   26256   26248   26251   26254   26255
   26249   26248   26251   26254   26249   26248   26251   26253
   26249   26248   26251   26252   26250   26248   26251   26254
   26250   26248   26251   26253   26250   26248   26251   26252
   26251   26254   26257   26260   26251   26254   26257   26259
   26251   26254   26257   26258   26252   26251   26254   26257
   26252   26251   26254   26256   26252   26251   26254   26255
   26253   26251   26254   26257   26253   26251   26254   26256
   26253   26251   26254   26255   26254   26257   26260   26263
   26254   26257   26260   26262   26254   26257   26260   26261
   26255   26254   26257   26260   26255   26254   26257   26259
   26255   26254   26257   26258   26256   26254   26257   26260
   26256   26254   26257   26259   26256   26254   26257   26258
   26258   26257   26260   26263   26258   26257   26260   26262
   26258   26257   26260   26261   26259   26257   26260   26263
   26259   26257   26260   26262   26259   26257   26260   26261
   26264   26265   26280   26286   26264   26265   26280   26282
   26264   26265   26280   26281   26265   26280   26286   26283
   26265   26264   26276   26279   26265   26264   26276   26278
   26265   26264   26276   26277   26265   26264   26272   26275
   26265   26264   26272   26274   26265   26264   26272   26273
   26265   26264   26268   26271   26265   26264   26268   26270
   26265   26264   26268   26269   26266   26265   26280   26286
   26266   26265   26280   26282   26266   26265   26280   26281
   26276   26264   26265   26266   26272   26264   26265   26266
   26268   26264   26265   26266   26267   26265   26280   26286
   26267   26265   26280   26282   26267   26265   26280   26281
   26276   26264   26265   26267   26272   26264   26265   26267
   26268   26264   26265   26267   26268   26264   26265   26280
   26268   26264   26276   26279   26268   26264   26276   26278
   26268   26264   26276   26277   26268   26264   26272   26275
   26268   26264   26272   26274   26268   26264   26272   26273
   26276   26264   26268   26269   26272   26264   26268   26269
   26276   26264   26268   26270   26272   26264   26268   26270
   26276   26264   26268   26271   26272   26264   26268   26271
   26272   26264   26265   26280   26272   26264   26276   26279
   26272   26264   26276   26278   26272   26264   26276   26277
   26276   26264   26272   26273   26276   26264   26272   26274
   26276   26264   26272   26275   26276   26264   26265   26280
   26285   26283   26286   26280   26284   26283   26286   26280
   26287   26283   26286   26280   26281   26280   26286   26283
   26282   26280   26286   26283   26283   26287   26288   26291
   26283   26287   26288   26290   26283   26287   26288   26289
   26284   26283   26287   26288   26285   26283   26287   26288
   26286   26283   26287   26288   26287   26288   26291   26293
   26287   26288   26291   26299   26287   26288   26291   26292
   26288   26291   26293   26294   26288   26291   26299   26302
   26288   26291   26299   26301   26288   26291   26299   26300
   26289   26288   26291   26293   26289   26288   26291   26299
   26289   26288   26291   26292   26290   26288   26291   26293
   26290   26288   26291   26299   26290   26288   26291   26292
   26291   26293   26294   26295   26291   26293   26294   26296
   26291   26299   26302   26303   26292   26291   26293   26294
   26292   26291   26299   26302   26292   26291   26299   26301
   26292   26291   26299   26300   26293   26294   26296   26308
   26293   26294   26296   26298   26293   26294   26296   26297
   26293   26291   26299   26302   26293   26291   26299   26301
   26293   26291   26299   26300   26294   26296   26308   26311
   26294   26296   26308   26310   26294   26296   26308   26309
   26299   26291   26293   26294   26295   26294   26296   26308
   26295   26294   26296   26298   26295   26294   26296   26297
   26296   26308   26311   26314   26296   26308   26311   26313
   26296   26308   26311   26312   26297   26296   26308   26311
   26297   26296   26308   26310   26297   26296   26308   26309
   26298   26296   26308   26311   26298   26296   26308   26310
   26298   26296   26308   26309   26299   26302   26303   26304
   26299   26302   26303   26305   26300   26299   26302   26303
   26301   26299   26302   26303   26302   26303   26305   26355
   26302   26303   26305   26307   26302   26303   26305   26306
   26303   26305   26355   26358   26303   26305   26355   26357
   26303   26305   26355   26356   26304   26303   26305   26355
   26304   26303   26305   26307   26304   26303   26305   26306
   26305   26355   26358   26361   26305   26355   26358   26360
   26305   26355   26358   26359   26306   26305   26355   26358
   26306   26305   26355   26357   26306   26305   26355   26356
   26307   26305   26355   26358   26307   26305   26355   26357
   26307   26305   26355   26356   26308   26311   26314   26317
   26308   26311   26314   26316   26308   26311   26314   26315
   26309   26308   26311   26314   26309   26308   26311   26313
   26309   26308   26311   26312   26310   26308   26311   26314
   26310   26308   26311   26313   26310   26308   26311   26312
   26311   26314   26317   26320   26311   26314   26317   26319
   26311   26314   26317   26318   26312   26311   26314   26317
   26312   26311   26314   26316   26312   26311   26314   26315
   26313   26311   26314   26317   26313   26311   26314   26316
   26313   26311   26314   26315   26314   26317   26320   26323
   26314   26317   26320   26322   26314   26317   26320   26321
   26315   26314   26317   26320   26315   26314   26317   26319
   26315   26314   26317   26318   26316   26314   26317   26320
   26316   26314   26317   26319   26316   26314   26317   26318
   26317   26320   26323   26326   26317   26320   26323   26325
   26317   26320   26323   26324   26318   26317   26320   26323
   26318   26317   26320   26322   26318   26317   26320   26321
   26319   26317   26320   26323   26319   26317   26320   26322
   26319   26317   26320   26321   26320   26323   26326   26328
   26320   26323   26326   26327   26321   26320   26323   26326
   26321   26320   26323   26325   26321   26320   26323   26324
   26322   26320   26323   26326   26322   26320   26323   26325
   26322   26320   26323   26324   26323   26326   26328   26330
   26323   26326   26328   26329   26324   26323   26326   26328
   26324   26323   26326   26327   26325   26323   26326   26328
   26325   26323   26326   26327   26326   26328   26330   26333
   26326   26328   26330   26332   26326   26328   26330   26331
   26327   26326   26328   26330   26327   26326   26328   26329
   26328   26330   26333   26336   26328   26330   26333   26335
   26328   26330   26333   26334   26329   26328   26330   26333
   26329   26328   26330   26332   26329   26328   26330   26331
   26330   26333   26336   26339   26330   26333   26336   26338
   26330   26333   26336   26337   26331   26330   26333   26336
   26331   26330   26333   26335   26331   26330   26333   26334
   26332   26330   26333   26336   26332   26330   26333   26335
   26332   26330   26333   26334   26333   26336   26339   26342
   26333   26336   26339   26341   26333   26336   26339   26340
   26334   26333   26336   26339   26334   26333   26336   26338
   26334   26333   26336   26337   26335   26333   26336   26339
   26335   26333   26336   26338   26335   26333   26336   26337
   26336   26339   26342   26345   26336   26339   26342   26344
   26336   26339   26342   26343   26337   26336   26339   26342
   26337   26336   26339   26341   26337   26336   26339   26340
   26338   26336   26339   26342   26338   26336   26339   26341
   26338   26336   26339   26340   26339   26342   26345   26348
   26339   26342   26345   26347   26339   26342   26345   26346
   26340   26339   26342   26345   26340   26339   26342   26344
   26340   26339   26342   26343   26341   26339   26342   26345
   26341   26339   26342   26344   26341   26339   26342   26343
   26342   26345   26348   26351   26342   26345   26348   26350
   26342   26345   26348   26349   26343   26342   26345   26348
   26343   26342   26345   26347   26343   26342   26345   26346
   26344   26342   26345   26348   26344   26342   26345   26347
   26344   26342   26345   26346   26345   26348   26351   26354
   26345   26348   26351   26353   26345   26348   26351   26352
   26346   26345   26348   26351   26346   26345   26348   26350
   26346   26345   26348   26349   26347   26345   26348   26351
   26347   26345   26348   26350   26347   26345   26348   26349
   26349   26348   26351   26354   26349   26348   26351   26353
   26349   26348   26351   26352   26350   26348   26351   26354
   26350   26348   26351   26353   26350   26348   26351   26352
   26355   26358   26361   26364   26355   26358   26361   26363
   26355   26358   26361   26362   26356   26355   26358   26361
   26356   26355   26358   26360   26356   26355   26358   26359
   26357   26355   26358   26361   26357   26355   26358   26360
   26357   26355   26358   26359   26358   26361   26364   26367
   26358   26361   26364   26366   26358   26361   26364   26365
   26359   26358   26361   26364   26359   26358   26361   26363
   26359   26358   26361   26362   26360   26358   26361   26364
   26360   26358   26361   26363   26360   26358   26361   26362
   26361   26364   26367   26370   26361   26364   26367   26369
   26361   26364   26367   26368   26362   26361   26364   26367
   26362   26361   26364   26366   26362   26361   26364   26365
   26363   26361   26364   26367   26363   26361   26364   26366
   26363   26361   26364   26365   26364   26367   26370   26373
   26364   26367   26370   26372   26364   26367   26370   26371
   26365   26364   26367   26370   26365   26364   26367   26369
   26365   26364   26367   26368   26366   26364   26367   26370
   26366   26364   26367   26369   26366   26364   26367   26368
   26367   26370   26373   26376   26367   26370   26373   26375
   26367   26370   26373   26374   26368   26367   26370   26373
   26368   26367   26370   26372   26368   26367   26370   26371
   26369   26367   26370   26373   26369   26367   26370   26372
   26369   26367   26370   26371   26370   26373   26376   26379
   26370   26373   26376   26378   26370   26373   26376   26377
   26371   26370   26373   26376   26371   26370   26373   26375
   26371   26370   26373   26374   26372   26370   26373   26376
   26372   26370   26373   26375   26372   26370   26373   26374
   26373   26376   26379   26382   26373   26376   26379   26381
   26373   26376   26379   26380   26374   26373   26376   26379
   26374   26373   26376   26378   26374   26373   26376   26377
   26375   26373   26376   26379   26375   26373   26376   26378
   26375   26373   26376   26377   26376   26379   26382   26385
   26376   26379   26382   26384   26376   26379   26382   26383
   26377   26376   26379   26382   26377   26376   26379   26381
   26377   26376   26379   26380   26378   26376   26379   26382
   26378   26376   26379   26381   26378   26376   26379   26380
   26379   26382   26385   26388   26379   26382   26385   26387
   26379   26382   26385   26386   26380   26379   26382   26385
   26380   26379   26382   26384   26380   26379   26382   26383
   26381   26379   26382   26385   26381   26379   26382   26384
   26381   26379   26382   26383   26382   26385   26388   26391
   26382   26385   26388   26390   26382   26385   26388   26389
   26383   26382   26385   26388   26383   26382   26385   26387
   26383   26382   26385   26386   26384   26382   26385   26388
   26384   26382   26385   26387   26384   26382   26385   26386
   26385   26388   26391   26394   26385   26388   26391   26393
   26385   26388   26391   26392   26386   26385   26388   26391
   26386   26385   26388   26390   26386   26385   26388   26389
   26387   26385   26388   26391   26387   26385   26388   26390
   26387   26385   26388   26389   26388   26391   26394   26397
   26388   26391   26394   26396   26388   26391   26394   26395
   26389   26388   26391   26394   26389   26388   26391   26393
   26389   26388   26391   26392   26390   26388   26391   26394
   26390   26388   26391   26393   26390   26388   26391   26392
   26392   26391   26394   26397   26392   26391   26394   26396
   26392   26391   26394   26395   26393   26391   26394   26397
   26393   26391   26394   26396   26393   26391   26394   26395
   26398   26402   26405   26412   26398   26402   26405   26407
   26398   26402   26405   26406   26399   26398   26402   26405
   26399   26398   26402   26404   26399   26398   26402   26403
   26400   26398   26402   26405   26400   26398   26402   26404
   26400   26398   26402   26403   26401   26398   26402   26405
   26401   26398   26402   26404   26401   26398   26402   26403
   26402   26405   26412   26408   26403   26402   26405   26412
   26403   26402   26405   26407   26403   26402   26405   26406
   26404   26402   26405   26412   26404   26402   26405   26407
   26404   26402   26405   26406   26410   26408   26412   26405
   26409   26408   26412   26405   26411   26408   26412   26405
   26406   26405   26412   26408   26407   26405   26412   26408
   26408   26411   26413   26416   26408   26411   26413   26415
   26408   26411   26413   26414   26409   26408   26411   26413
   26410   26408   26411   26413   26411   26413   26416   26418
   26411   26413   26416   26424   26411   26413   26416   26417
   26412   26408   26411   26413   26413   26416   26418   26419
   26413   26416   26424   26427   26413   26416   26424   26426
   26413   26416   26424   26425   26414   26413   26416   26418
   26414   26413   26416   26424   26414   26413   26416   26417
   26415   26413   26416   26418   26415   26413   26416   26424
   26415   26413   26416   26417   26416   26418   26419   26420
   26416   26418   26419   26421   26416   26424   26427   26428
   26417   26416   26418   26419   26417   26416   26424   26427
   26417   26416   26424   26426   26417   26416   26424   26425
   26418   26419   26421   26433   26418   26419   26421   26423
   26418   26419   26421   26422   26418   26416   26424   26427
   26418   26416   26424   26426   26418   26416   26424   26425
   26419   26421   26433   26436   26419   26421   26433   26435
   26419   26421   26433   26434   26424   26416   26418   26419
   26420   26419   26421   26433   26420   26419   26421   26423
   26420   26419   26421   26422   26421   26433   26436   26439
   26421   26433   26436   26438   26421   26433   26436   26437
   26422   26421   26433   26436   26422   26421   26433   26435
   26422   26421   26433   26434   26423   26421   26433   26436
   26423   26421   26433   26435   26423   26421   26433   26434
   26424   26427   26428   26429   26424   26427   26428   26430
   26425   26424   26427   26428   26426   26424   26427   26428
   26427   26428   26430   26480   26427   26428   26430   26432
   26427   26428   26430   26431   26428   26430   26480   26483
   26428   26430   26480   26482   26428   26430   26480   26481
   26429   26428   26430   26480   26429   26428   26430   26432
   26429   26428   26430   26431   26430   26480   26483   26486
   26430   26480   26483   26485   26430   26480   26483   26484
   26431   26430   26480   26483   26431   26430   26480   26482
   26431   26430   26480   26481   26432   26430   26480   26483
   26432   26430   26480   26482   26432   26430   26480   26481
   26433   26436   26439   26442   26433   26436   26439   26441
   26433   26436   26439   26440   26434   26433   26436   26439
   26434   26433   26436   26438   26434   26433   26436   26437
   26435   26433   26436   26439   26435   26433   26436   26438
   26435   26433   26436   26437   26436   26439   26442   26445
   26436   26439   26442   26444   26436   26439   26442   26443
   26437   26436   26439   26442   26437   26436   26439   26441
   26437   26436   26439   26440   26438   26436   26439   26442
   26438   26436   26439   26441   26438   26436   26439   26440
   26439   26442   26445   26448   26439   26442   26445   26447
   26439   26442   26445   26446   26440   26439   26442   26445
   26440   26439   26442   26444   26440   26439   26442   26443
   26441   26439   26442   26445   26441   26439   26442   26444
   26441   26439   26442   26443   26442   26445   26448   26451
   26442   26445   26448   26450   26442   26445   26448   26449
   26443   26442   26445   26448   26443   26442   26445   26447
   26443   26442   26445   26446   26444   26442   26445   26448
   26444   26442   26445   26447   26444   26442   26445   26446
   26445   26448   26451   26453   26445   26448   26451   26452
   26446   26445   26448   26451   26446   26445   26448   26450
   26446   26445   26448   26449   26447   26445   26448   26451
   26447   26445   26448   26450   26447   26445   26448   26449
   26448   26451   26453   26455   26448   26451   26453   26454
   26449   26448   26451   26453   26449   26448   26451   26452
   26450   26448   26451   26453   26450   26448   26451   26452
   26451   26453   26455   26458   26451   26453   26455   26457
   26451   26453   26455   26456   26452   26451   26453   26455
   26452   26451   26453   26454   26453   26455   26458   26461
   26453   26455   26458   26460   26453   26455   26458   26459
   26454   26453   26455   26458   26454   26453   26455   26457
   26454   26453   26455   26456   26455   26458   26461   26464
   26455   26458   26461   26463   26455   26458   26461   26462
   26456   26455   26458   26461   26456   26455   26458   26460
   26456   26455   26458   26459   26457   26455   26458   26461
   26457   26455   26458   26460   26457   26455   26458   26459
   26458   26461   26464   26467   26458   26461   26464   26466
   26458   26461   26464   26465   26459   26458   26461   26464
   26459   26458   26461   26463   26459   26458   26461   26462
   26460   26458   26461   26464   26460   26458   26461   26463
   26460   26458   26461   26462   26461   26464   26467   26470
   26461   26464   26467   26469   26461   26464   26467   26468
   26462   26461   26464   26467   26462   26461   26464   26466
   26462   26461   26464   26465   26463   26461   26464   26467
   26463   26461   26464   26466   26463   26461   26464   26465
   26464   26467   26470   26473   26464   26467   26470   26472
   26464   26467   26470   26471   26465   26464   26467   26470
   26465   26464   26467   26469   26465   26464   26467   26468
   26466   26464   26467   26470   26466   26464   26467   26469
   26466   26464   26467   26468   26467   26470   26473   26476
   26467   26470   26473   26475   26467   26470   26473   26474
   26468   26467   26470   26473   26468   26467   26470   26472
   26468   26467   26470   26471   26469   26467   26470   26473
   26469   26467   26470   26472   26469   26467   26470   26471
   26470   26473   26476   26479   26470   26473   26476   26478
   26470   26473   26476   26477   26471   26470   26473   26476
   26471   26470   26473   26475   26471   26470   26473   26474
   26472   26470   26473   26476   26472   26470   26473   26475
   26472   26470   26473   26474   26474   26473   26476   26479
   26474   26473   26476   26478   26474   26473   26476   26477
   26475   26473   26476   26479   26475   26473   26476   26478
   26475   26473   26476   26477   26480   26483   26486   26489
   26480   26483   26486   26488   26480   26483   26486   26487
   26481   26480   26483   26486   26481   26480   26483   26485
   26481   26480   26483   26484   26482   26480   26483   26486
   26482   26480   26483   26485   26482   26480   26483   26484
   26483   26486   26489   26492   26483   26486   26489   26491
   26483   26486   26489   26490   26484   26483   26486   26489
   26484   26483   26486   26488   26484   26483   26486   26487
   26485   26483   26486   26489   26485   26483   26486   26488
   26485   26483   26486   26487   26486   26489   26492   26495
   26486   26489   26492   26494   26486   26489   26492   26493
   26487   26486   26489   26492   26487   26486   26489   26491
   26487   26486   26489   26490   26488   26486   26489   26492
   26488   26486   26489   26491   26488   26486   26489   26490
   26489   26492   26495   26498   26489   26492   26495   26497
   26489   26492   26495   26496   26490   26489   26492   26495
   26490   26489   26492   26494   26490   26489   26492   26493
   26491   26489   26492   26495   26491   26489   26492   26494
   26491   26489   26492   26493   26492   26495   26498   26501
   26492   26495   26498   26500   26492   26495   26498   26499
   26493   26492   26495   26498   26493   26492   26495   26497
   26493   26492   26495   26496   26494   26492   26495   26498
   26494   26492   26495   26497   26494   26492   26495   26496
   26495   26498   26501   26504   26495   26498   26501   26503
   26495   26498   26501   26502   26496   26495   26498   26501
   26496   26495   26498   26500   26496   26495   26498   26499
   26497   26495   26498   26501   26497   26495   26498   26500
   26497   26495   26498   26499   26498   26501   26504   26507
   26498   26501   26504   26506   26498   26501   26504   26505
   26499   26498   26501   26504   26499   26498   26501   26503
   26499   26498   26501   26502   26500   26498   26501   26504
   26500   26498   26501   26503   26500   26498   26501   26502
   26501   26504   26507   26510   26501   26504   26507   26509
   26501   26504   26507   26508   26502   26501   26504   26507
   26502   26501   26504   26506   26502   26501   26504   26505
   26503   26501   26504   26507   26503   26501   26504   26506
   26503   26501   26504   26505   26504   26507   26510   26513
   26504   26507   26510   26512   26504   26507   26510   26511
   26505   26504   26507   26510   26505   26504   26507   26509
   26505   26504   26507   26508   26506   26504   26507   26510
   26506   26504   26507   26509   26506   26504   26507   26508
   26507   26510   26513   26516   26507   26510   26513   26515
   26507   26510   26513   26514   26508   26507   26510   26513
   26508   26507   26510   26512   26508   26507   26510   26511
   26509   26507   26510   26513   26509   26507   26510   26512
   26509   26507   26510   26511   26510   26513   26516   26519
   26510   26513   26516   26518   26510   26513   26516   26517
   26511   26510   26513   26516   26511   26510   26513   26515
   26511   26510   26513   26514   26512   26510   26513   26516
   26512   26510   26513   26515   26512   26510   26513   26514
   26513   26516   26519   26522   26513   26516   26519   26521
   26513   26516   26519   26520   26514   26513   26516   26519
   26514   26513   26516   26518   26514   26513   26516   26517
   26515   26513   26516   26519   26515   26513   26516   26518
   26515   26513   26516   26517   26517   26516   26519   26522
   26517   26516   26519   26521   26517   26516   26519   26520
   26518   26516   26519   26522   26518   26516   26519   26521
   26518   26516   26519   26520   26523   26524   26539   26545
   26523   26524   26539   26541   26523   26524   26539   26540
   26524   26539   26545   26542   26524   26523   26535   26538
   26524   26523   26535   26537   26524   26523   26535   26536
   26524   26523   26531   26534   26524   26523   26531   26533
   26524   26523   26531   26532   26524   26523   26527   26530
   26524   26523   26527   26529   26524   26523   26527   26528
   26525   26524   26539   26545   26525   26524   26539   26541
   26525   26524   26539   26540   26535   26523   26524   26525
   26531   26523   26524   26525   26527   26523   26524   26525
   26526   26524   26539   26545   26526   26524   26539   26541
   26526   26524   26539   26540   26535   26523   26524   26526
   26531   26523   26524   26526   26527   26523   26524   26526
   26527   26523   26524   26539   26527   26523   26535   26538
   26527   26523   26535   26537   26527   26523   26535   26536
   26527   26523   26531   26534   26527   26523   26531   26533
   26527   26523   26531   26532   26535   26523   26527   26528
   26531   26523   26527   26528   26535   26523   26527   26529
   26531   26523   26527   26529   26535   26523   26527   26530
   26531   26523   26527   26530   26531   26523   26524   26539
   26531   26523   26535   26538   26531   26523   26535   26537
   26531   26523   26535   26536   26535   26523   26531   26532
   26535   26523   26531   26533   26535   26523   26531   26534
   26535   26523   26524   26539   26544   26542   26545   26539
   26543   26542   26545   26539   26546   26542   26545   26539
   26540   26539   26545   26542   26541   26539   26545   26542
   26542   26546   26547   26550   26542   26546   26547   26549
   26542   26546   26547   26548   26543   26542   26546   26547
   26544   26542   26546   26547   26545   26542   26546   26547
   26546   26547   26550   26552   26546   26547   26550   26558
   26546   26547   26550   26551   26547   26550   26552   26553
   26547   26550   26558   26561   26547   26550   26558   26560
   26547   26550   26558   26559   26548   26547   26550   26552
   26548   26547   26550   26558   26548   26547   26550   26551
   26549   26547   26550   26552   26549   26547   26550   26558
   26549   26547   26550   26551   26550   26552   26553   26554
   26550   26552   26553   26555   26550   26558   26561   26562
   26551   26550   26552   26553   26551   26550   26558   26561
   26551   26550   26558   26560   26551   26550   26558   26559
   26552   26553   26555   26567   26552   26553   26555   26557
   26552   26553   26555   26556   26552   26550   26558   26561
   26552   26550   26558   26560   26552   26550   26558   26559
   26553   26555   26567   26570   26553   26555   26567   26569
   26553   26555   26567   26568   26558   26550   26552   26553
   26554   26553   26555   26567   26554   26553   26555   26557
   26554   26553   26555   26556   26555   26567   26570   26573
   26555   26567   26570   26572   26555   26567   26570   26571
   26556   26555   26567   26570   26556   26555   26567   26569
   26556   26555   26567   26568   26557   26555   26567   26570
   26557   26555   26567   26569   26557   26555   26567   26568
   26558   26561   26562   26563   26558   26561   26562   26564
   26559   26558   26561   26562   26560   26558   26561   26562
   26561   26562   26564   26614   26561   26562   26564   26566
   26561   26562   26564   26565   26562   26564   26614   26617
   26562   26564   26614   26616   26562   26564   26614   26615
   26563   26562   26564   26614   26563   26562   26564   26566
   26563   26562   26564   26565   26564   26614   26617   26620
   26564   26614   26617   26619   26564   26614   26617   26618
   26565   26564   26614   26617   26565   26564   26614   26616
   26565   26564   26614   26615   26566   26564   26614   26617
   26566   26564   26614   26616   26566   26564   26614   26615
   26567   26570   26573   26576   26567   26570   26573   26575
   26567   26570   26573   26574   26568   26567   26570   26573
   26568   26567   26570   26572   26568   26567   26570   26571
   26569   26567   26570   26573   26569   26567   26570   26572
   26569   26567   26570   26571   26570   26573   26576   26579
   26570   26573   26576   26578   26570   26573   26576   26577
   26571   26570   26573   26576   26571   26570   26573   26575
   26571   26570   26573   26574   26572   26570   26573   26576
   26572   26570   26573   26575   26572   26570   26573   26574
   26573   26576   26579   26582   26573   26576   26579   26581
   26573   26576   26579   26580   26574   26573   26576   26579
   26574   26573   26576   26578   26574   26573   26576   26577
   26575   26573   26576   26579   26575   26573   26576   26578
   26575   26573   26576   26577   26576   26579   26582   26585
   26576   26579   26582   26584   26576   26579   26582   26583
   26577   26576   26579   26582   26577   26576   26579   26581
   26577   26576   26579   26580   26578   26576   26579   26582
   26578   26576   26579   26581   26578   26576   26579   26580
   26579   26582   26585   26587   26579   26582   26585   26586
   26580   26579   26582   26585   26580   26579   26582   26584
   26580   26579   26582   26583   26581   26579   26582   26585
   26581   26579   26582   26584   26581   26579   26582   26583
   26582   26585   26587   26589   26582   26585   26587   26588
   26583   26582   26585   26587   26583   26582   26585   26586
   26584   26582   26585   26587   26584   26582   26585   26586
   26585   26587   26589   26592   26585   26587   26589   26591
   26585   26587   26589   26590   26586   26585   26587   26589
   26586   26585   26587   26588   26587   26589   26592   26595
   26587   26589   26592   26594   26587   26589   26592   26593
   26588   26587   26589   26592   26588   26587   26589   26591
   26588   26587   26589   26590   26589   26592   26595   26598
   26589   26592   26595   26597   26589   26592   26595   26596
   26590   26589   26592   26595   26590   26589   26592   26594
   26590   26589   26592   26593   26591   26589   26592   26595
   26591   26589   26592   26594   26591   26589   26592   26593
   26592   26595   26598   26601   26592   26595   26598   26600
   26592   26595   26598   26599   26593   26592   26595   26598
   26593   26592   26595   26597   26593   26592   26595   26596
   26594   26592   26595   26598   26594   26592   26595   26597
   26594   26592   26595   26596   26595   26598   26601   26604
   26595   26598   26601   26603   26595   26598   26601   26602
   26596   26595   26598   26601   26596   26595   26598   26600
   26596   26595   26598   26599   26597   26595   26598   26601
   26597   26595   26598   26600   26597   26595   26598   26599
   26598   26601   26604   26607   26598   26601   26604   26606
   26598   26601   26604   26605   26599   26598   26601   26604
   26599   26598   26601   26603   26599   26598   26601   26602
   26600   26598   26601   26604   26600   26598   26601   26603
   26600   26598   26601   26602   26601   26604   26607   26610
   26601   26604   26607   26609   26601   26604   26607   26608
   26602   26601   26604   26607   26602   26601   26604   26606
   26602   26601   26604   26605   26603   26601   26604   26607
   26603   26601   26604   26606   26603   26601   26604   26605
   26604   26607   26610   26613   26604   26607   26610   26612
   26604   26607   26610   26611   26605   26604   26607   26610
   26605   26604   26607   26609   26605   26604   26607   26608
   26606   26604   26607   26610   26606   26604   26607   26609
   26606   26604   26607   26608   26608   26607   26610   26613
   26608   26607   26610   26612   26608   26607   26610   26611
   26609   26607   26610   26613   26609   26607   26610   26612
   26609   26607   26610   26611   26614   26617   26620   26623
   26614   26617   26620   26622   26614   26617   26620   26621
   26615   26614   26617   26620   26615   26614   26617   26619
   26615   26614   26617   26618   26616   26614   26617   26620
   26616   26614   26617   26619   26616   26614   26617   26618
   26617   26620   26623   26626   26617   26620   26623   26625
   26617   26620   26623   26624   26618   26617   26620   26623
   26618   26617   26620   26622   26618   26617   26620   26621
   26619   26617   26620   26623   26619   26617   26620   26622
   26619   26617   26620   26621   26620   26623   26626   26629
   26620   26623   26626   26628   26620   26623   26626   26627
   26621   26620   26623   26626   26621   26620   26623   26625
   26621   26620   26623   26624   26622   26620   26623   26626
   26622   26620   26623   26625   26622   26620   26623   26624
   26623   26626   26629   26632   26623   26626   26629   26631
   26623   26626   26629   26630   26624   26623   26626   26629
   26624   26623   26626   26628   26624   26623   26626   26627
   26625   26623   26626   26629   26625   26623   26626   26628
   26625   26623   26626   26627   26626   26629   26632   26635
   26626   26629   26632   26634   26626   26629   26632   26633
   26627   26626   26629   26632   26627   26626   26629   26631
   26627   26626   26629   26630   26628   26626   26629   26632
   26628   26626   26629   26631   26628   26626   26629   26630
   26629   26632   26635   26638   26629   26632   26635   26637
   26629   26632   26635   26636   26630   26629   26632   26635
   26630   26629   26632   26634   26630   26629   26632   26633
   26631   26629   26632   26635   26631   26629   26632   26634
   26631   26629   26632   26633   26632   26635   26638   26641
   26632   26635   26638   26640   26632   26635   26638   26639
   26633   26632   26635   26638   26633   26632   26635   26637
   26633   26632   26635   26636   26634   26632   26635   26638
   26634   26632   26635   26637   26634   26632   26635   26636
   26635   26638   26641   26644   26635   26638   26641   26643
   26635   26638   26641   26642   26636   26635   26638   26641
   26636   26635   26638   26640   26636   26635   26638   26639
   26637   26635   26638   26641   26637   26635   26638   26640
   26637   26635   26638   26639   26638   26641   26644   26647
   26638   26641   26644   26646   26638   26641   26644   26645
   26639   26638   26641   26644   26639   26638   26641   26643
   26639   26638   26641   26642   26640   26638   26641   26644
   26640   26638   26641   26643   26640   26638   26641   26642
   26641   26644   26647   26650   26641   26644   26647   26649
   26641   26644   26647   26648   26642   26641   26644   26647
   26642   26641   26644   26646   26642   26641   26644   26645
   26643   26641   26644   26647   26643   26641   26644   26646
   26643   26641   26644   26645   26644   26647   26650   26653
   26644   26647   26650   26652   26644   26647   26650   26651
   26645   26644   26647   26650   26645   26644   26647   26649
   26645   26644   26647   26648   26646   26644   26647   26650
   26646   26644   26647   26649   26646   26644   26647   26648
   26647   26650   26653   26656   26647   26650   26653   26655
   26647   26650   26653   26654   26648   26647   26650   26653
   26648   26647   26650   26652   26648   26647   26650   26651
   26649   26647   26650   26653   26649   26647   26650   26652
   26649   26647   26650   26651   26651   26650   26653   26656
   26651   26650   26653   26655   26651   26650   26653   26654
   26652   26650   26653   26656   26652   26650   26653   26655
   26652   26650   26653   26654   26657   26670   26673   26675
   26657   26670   26673   26674   26657   26670   26673   26680
   26658   26657   26662   26665   26658   26657   26662   26664
   26658   26657   26662   26663   26658   26657   26666   26669
   26658   26657   26666   26668   26658   26657   26666   26667
   26658   26657   26670   26672   26658   26657   26670   26671
   26658   26657   26670   26673   26662   26657   26658   26659
   26666   26657   26658   26659   26670   26657   26658   26659
   26662   26657   26658   26660   26666   26657   26658   26660
   26670   26657   26658   26660   26662   26657   26658   26661
   26666   26657   26658   26661   26670   26657   26658   26661
   26662   26657   26666   26669   26662   26657   26666   26668
   26662   26657   26666   26667   26662   26657   26670   26672
   26662   26657   26670   26671   26662   26657   26670   26673
   26666   26657   26662   26663   26670   26657   26662   26663
   26666   26657   26662   26664   26670   26657   26662   26664
   26666   26657   26662   26665   26670   26657   26662   26665
   26666   26657   26670   26672   26666   26657   26670   26671
   26666   26657   26670   26673   26670   26657   26666   26667
   26670   26657   26666   26668   26670   26657   26666   26669
   26670   26673   26680   26676   26671   26670   26673   26675
   26671   26670   26673   26674   26671   26670   26673   26680
   26672   26670   26673   26675   26672   26670   26673   26674
   26672   26670   26673   26680   26678   26676   26680   26673
   26677   26676   26680   26673   26679   26676   26680   26673
   26674   26673   26680   26676   26675   26673   26680   26676
   26676   26679   26681   26683   26676   26679   26681   26682
   26676   26679   26681   26686   26677   26676   26679   26681
   26678   26676   26679   26681   26679   26681   26686   26684
   26679   26681   26686   26687   26679   26681   26686   26688
   26680   26676   26679   26681   26736   26684   26686   26681
   26685   26684   26686   26681   26681   26686   26688   26690
   26681   26686   26688   26689   26681   26686   26688   26692
   26682   26681   26686   26684   26682   26681   26686   26687
   26682   26681   26686   26688   26683   26681   26686   26684
   26683   26681   26686   26687   26683   26681   26686   26688
   26684   26736   26738   26741   26684   26736   26738   26740
   26684   26736   26738   26739   26684   26686   26688   26690
   26684   26686   26688   26689   26684   26686   26688   26692
   26685   26684   26736   26737   26685   26684   26736   26738
   26685   26684   26686   26687   26685   26684   26686   26688
   26686   26684   26736   26737   26686   26684   26736   26738
   26686   26688   26690   26691   26686   26688   26692   26694
   26686   26688   26692   26693   26736   26684   26686   26687
   26687   26686   26688   26690   26687   26686   26688   26689
   26687   26686   26688   26692   26736   26684   26686   26688
   26688   26692   26694   26695   26688   26692   26694   26696
   26689   26688   26690   26691   26689   26688   26692   26694
   26689   26688   26692   26693   26690   26688   26692   26694
   26690   26688   26692   26693   26692   26688   26690   26691
   26692   26694   26696   26698   26692   26694   26696   26697
   26692   26694   26696   26699   26693   26692   26694   26695
   26693   26692   26694   26696   26694   26696   26699   26701
   26694   26696   26699   26700   26694   26696   26699   26702
   26695   26694   26696   26698   26695   26694   26696   26697
   26695   26694   26696   26699   26696   26699   26702   26704
   26696   26699   26702   26703   26696   26699   26702   26705
   26697   26696   26699   26701   26697   26696   26699   26700
   26697   26696   26699   26702   26698   26696   26699   26701
   26698   26696   26699   26700   26698   26696   26699   26702
   26699   26702   26705   26707   26699   26702   26705   26706
   26699   26702   26705   26708   26700   26699   26702   26704
   26700   26699   26702   26703   26700   26699   26702   26705
   26701   26699   26702   26704   26701   26699   26702   26703
   26701   26699   26702   26705   26702   26705   26708   26710
   26702   26705   26708   26709   26702   26705   26708   26711
   26703   26702   26705   26707   26703   26702   26705   26706
   26703   26702   26705   26708   26704   26702   26705   26707
   26704   26702   26705   26706   26704   26702   26705   26708
   26705   26708   26711   26713   26705   26708   26711   26712
   26705   26708   26711   26714   26706   26705   26708   26710
   26706   26705   26708   26709   26706   26705   26708   26711
   26707   26705   26708   26710   26707   26705   26708   26709
   26707   26705   26708   26711   26708   26711   26714   26716
   26708   26711   26714   26715   26708   26711   26714   26717
   26709   26708   26711   26713   26709   26708   26711   26712
   26709   26708   26711   26714   26710   26708   26711   26713
   26710   26708   26711   26712   26710   26708   26711   26714
   26711   26714   26717   26719   26711   26714   26717   26718
   26711   26714   26717   26720   26712   26711   26714   26716
   26712   26711   26714   26715   26712   26711   26714   26717
   26713   26711   26714   26716   26713   26711   26714   26715
   26713   26711   26714   26717   26714   26717   26720   26722
   26714   26717   26720   26721   26714   26717   26720   26723
   26715   26714   26717   26719   26715   26714   26717   26718
   26715   26714   26717   26720   26716   26714   26717   26719
   26716   26714   26717   26718   26716   26714   26717   26720
   26717   26720   26723   26725   26717   26720   26723   26724
   26717   26720   26723   26726   26718   26717   26720   26722
   26718   26717   26720   26721   26718   26717   26720   26723
   26719   26717   26720   26722   26719   26717   26720   26721
   26719   26717   26720   26723   26720   26723   26726   26728
   26720   26723   26726   26727   26720   26723   26726   26729
   26721   26720   26723   26725   26721   26720   26723   26724
   26721   26720   26723   26726   26722   26720   26723   26725
   26722   26720   26723   26724   26722   26720   26723   26726
   26723   26726   26729   26731   26723   26726   26729   26730
   26723   26726   26729   26732   26724   26723   26726   26728
   26724   26723   26726   26727   26724   26723   26726   26729
   26725   26723   26726   26728   26725   26723   26726   26727
   26725   26723   26726   26729   26726   26729   26732   26735
   26726   26729   26732   26734   26726   26729   26732   26733
   26727   26726   26729   26731   26727   26726   26729   26730
   26727   26726   26729   26732   26728   26726   26729   26731
   26728   26726   26729   26730   26728   26726   26729   26732
   26730   26729   26732   26735   26730   26729   26732   26734
   26730   26729   26732   26733   26731   26729   26732   26735
   26731   26729   26732   26734   26731   26729   26732   26733
   26736   26738   26741   26744   26736   26738   26741   26743
   26736   26738   26741   26742   26737   26736   26738   26741
   26737   26736   26738   26740   26737   26736   26738   26739
   26738   26741   26744   26747   26738   26741   26744   26746
   26738   26741   26744   26745   26739   26738   26741   26744
   26739   26738   26741   26743   26739   26738   26741   26742
   26740   26738   26741   26744   26740   26738   26741   26743
   26740   26738   26741   26742   26741   26744   26747   26750
   26741   26744   26747   26749   26741   26744   26747   26748
   26742   26741   26744   26747   26742   26741   26744   26746
   26742   26741   26744   26745   26743   26741   26744   26747
   26743   26741   26744   26746   26743   26741   26744   26745
   26744   26747   26750   26753   26744   26747   26750   26752
   26744   26747   26750   26751   26745   26744   26747   26750
   26745   26744   26747   26749   26745   26744   26747   26748
   26746   26744   26747   26750   26746   26744   26747   26749
   26746   26744   26747   26748   26747   26750   26753   26756
   26747   26750   26753   26755   26747   26750   26753   26754
   26748   26747   26750   26753   26748   26747   26750   26752
   26748   26747   26750   26751   26749   26747   26750   26753
   26749   26747   26750   26752   26749   26747   26750   26751
   26750   26753   26756   26759   26750   26753   26756   26758
   26750   26753   26756   26757   26751   26750   26753   26756
   26751   26750   26753   26755   26751   26750   26753   26754
   26752   26750   26753   26756   26752   26750   26753   26755
   26752   26750   26753   26754   26753   26756   26759   26762
   26753   26756   26759   26761   26753   26756   26759   26760
   26754   26753   26756   26759   26754   26753   26756   26758
   26754   26753   26756   26757   26755   26753   26756   26759
   26755   26753   26756   26758   26755   26753   26756   26757
   26756   26759   26762   26765   26756   26759   26762   26764
   26756   26759   26762   26763   26757   26756   26759   26762
   26757   26756   26759   26761   26757   26756   26759   26760
   26758   26756   26759   26762   26758   26756   26759   26761
   26758   26756   26759   26760   26759   26762   26765   26768
   26759   26762   26765   26767   26759   26762   26765   26766
   26760   26759   26762   26765   26760   26759   26762   26764
   26760   26759   26762   26763   26761   26759   26762   26765
   26761   26759   26762   26764   26761   26759   26762   26763
   26762   26765   26768   26771   26762   26765   26768   26770
   26762   26765   26768   26769   26763   26762   26765   26768
   26763   26762   26765   26767   26763   26762   26765   26766
   26764   26762   26765   26768   26764   26762   26765   26767
   26764   26762   26765   26766   26765   26768   26771   26774
   26765   26768   26771   26773   26765   26768   26771   26772
   26766   26765   26768   26771   26766   26765   26768   26770
   26766   26765   26768   26769   26767   26765   26768   26771
   26767   26765   26768   26770   26767   26765   26768   26769
   26768   26771   26774   26777   26768   26771   26774   26776
   26768   26771   26774   26775   26769   26768   26771   26774
   26769   26768   26771   26773   26769   26768   26771   26772
   26770   26768   26771   26774   26770   26768   26771   26773
   26770   26768   26771   26772   26771   26774   26777   26780
   26771   26774   26777   26779   26771   26774   26777   26778
   26772   26771   26774   26777   26772   26771   26774   26776
   26772   26771   26774   26775   26773   26771   26774   26777
   26773   26771   26774   26776   26773   26771   26774   26775
   26774   26777   26780   26783   26774   26777   26780   26782
   26774   26777   26780   26781   26775   26774   26777   26780
   26775   26774   26777   26779   26775   26774   26777   26778
   26776   26774   26777   26780   26776   26774   26777   26779
   26776   26774   26777   26778   26778   26777   26780   26783
   26778   26777   26780   26782   26778   26777   26780   26781
   26779   26777   26780   26783   26779   26777   26780   26782
   26779   26777   26780   26781   26784   26785   26800   26806
   26784   26785   26800   26802   26784   26785   26800   26801
   26785   26800   26806   26803   26785   26784   26796   26799
   26785   26784   26796   26798   26785   26784   26796   26797
   26785   26784   26792   26795   26785   26784   26792   26794
   26785   26784   26792   26793   26785   26784   26788   26791
   26785   26784   26788   26790   26785   26784   26788   26789
   26786   26785   26800   26806   26786   26785   26800   26802
   26786   26785   26800   26801   26796   26784   26785   26786
   26792   26784   26785   26786   26788   26784   26785   26786
   26787   26785   26800   26806   26787   26785   26800   26802
   26787   26785   26800   26801   26796   26784   26785   26787
   26792   26784   26785   26787   26788   26784   26785   26787
   26788   26784   26785   26800   26788   26784   26796   26799
   26788   26784   26796   26798   26788   26784   26796   26797
   26788   26784   26792   26795   26788   26784   26792   26794
   26788   26784   26792   26793   26796   26784   26788   26789
   26792   26784   26788   26789   26796   26784   26788   26790
   26792   26784   26788   26790   26796   26784   26788   26791
   26792   26784   26788   26791   26792   26784   26785   26800
   26792   26784   26796   26799   26792   26784   26796   26798
   26792   26784   26796   26797   26796   26784   26792   26793
   26796   26784   26792   26794   26796   26784   26792   26795
   26796   26784   26785   26800   26805   26803   26806   26800
   26804   26803   26806   26800   26807   26803   26806   26800
   26801   26800   26806   26803   26802   26800   26806   26803
   26803   26807   26808   26811   26803   26807   26808   26810
   26803   26807   26808   26809   26804   26803   26807   26808
   26805   26803   26807   26808   26806   26803   26807   26808
   26807   26808   26811   26813   26807   26808   26811   26819
   26807   26808   26811   26812   26808   26811   26813   26814
   26808   26811   26819   26822   26808   26811   26819   26821
   26808   26811   26819   26820   26809   26808   26811   26813
   26809   26808   26811   26819   26809   26808   26811   26812
   26810   26808   26811   26813   26810   26808   26811   26819
   26810   26808   26811   26812   26811   26813   26814   26815
   26811   26813   26814   26816   26811   26819   26822   26823
   26812   26811   26813   26814   26812   26811   26819   26822
   26812   26811   26819   26821   26812   26811   26819   26820
   26813   26814   26816   26828   26813   26814   26816   26818
   26813   26814   26816   26817   26813   26811   26819   26822
   26813   26811   26819   26821   26813   26811   26819   26820
   26814   26816   26828   26831   26814   26816   26828   26830
   26814   26816   26828   26829   26819   26811   26813   26814
   26815   26814   26816   26828   26815   26814   26816   26818
   26815   26814   26816   26817   26816   26828   26831   26834
   26816   26828   26831   26833   26816   26828   26831   26832
   26817   26816   26828   26831   26817   26816   26828   26830
   26817   26816   26828   26829   26818   26816   26828   26831
   26818   26816   26828   26830   26818   26816   26828   26829
   26819   26822   26823   26824   26819   26822   26823   26825
   26820   26819   26822   26823   26821   26819   26822   26823
   26822   26823   26825   26875   26822   26823   26825   26827
   26822   26823   26825   26826   26823   26825   26875   26878
   26823   26825   26875   26877   26823   26825   26875   26876
   26824   26823   26825   26875   26824   26823   26825   26827
   26824   26823   26825   26826   26825   26875   26878   26881
   26825   26875   26878   26880   26825   26875   26878   26879
   26826   26825   26875   26878   26826   26825   26875   26877
   26826   26825   26875   26876   26827   26825   26875   26878
   26827   26825   26875   26877   26827   26825   26875   26876
   26828   26831   26834   26837   26828   26831   26834   26836
   26828   26831   26834   26835   26829   26828   26831   26834
   26829   26828   26831   26833   26829   26828   26831   26832
   26830   26828   26831   26834   26830   26828   26831   26833
   26830   26828   26831   26832   26831   26834   26837   26840
   26831   26834   26837   26839   26831   26834   26837   26838
   26832   26831   26834   26837   26832   26831   26834   26836
   26832   26831   26834   26835   26833   26831   26834   26837
   26833   26831   26834   26836   26833   26831   26834   26835
   26834   26837   26840   26843   26834   26837   26840   26842
   26834   26837   26840   26841   26835   26834   26837   26840
   26835   26834   26837   26839   26835   26834   26837   26838
   26836   26834   26837   26840   26836   26834   26837   26839
   26836   26834   26837   26838   26837   26840   26843   26846
   26837   26840   26843   26845   26837   26840   26843   26844
   26838   26837   26840   26843   26838   26837   26840   26842
   26838   26837   26840   26841   26839   26837   26840   26843
   26839   26837   26840   26842   26839   26837   26840   26841
   26840   26843   26846   26848   26840   26843   26846   26847
   26841   26840   26843   26846   26841   26840   26843   26845
   26841   26840   26843   26844   26842   26840   26843   26846
   26842   26840   26843   26845   26842   26840   26843   26844
   26843   26846   26848   26850   26843   26846   26848   26849
   26844   26843   26846   26848   26844   26843   26846   26847
   26845   26843   26846   26848   26845   26843   26846   26847
   26846   26848   26850   26853   26846   26848   26850   26852
   26846   26848   26850   26851   26847   26846   26848   26850
   26847   26846   26848   26849   26848   26850   26853   26856
   26848   26850   26853   26855   26848   26850   26853   26854
   26849   26848   26850   26853   26849   26848   26850   26852
   26849   26848   26850   26851   26850   26853   26856   26859
   26850   26853   26856   26858   26850   26853   26856   26857
   26851   26850   26853   26856   26851   26850   26853   26855
   26851   26850   26853   26854   26852   26850   26853   26856
   26852   26850   26853   26855   26852   26850   26853   26854
   26853   26856   26859   26862   26853   26856   26859   26861
   26853   26856   26859   26860   26854   26853   26856   26859
   26854   26853   26856   26858   26854   26853   26856   26857
   26855   26853   26856   26859   26855   26853   26856   26858
   26855   26853   26856   26857   26856   26859   26862   26865
   26856   26859   26862   26864   26856   26859   26862   26863
   26857   26856   26859   26862   26857   26856   26859   26861
   26857   26856   26859   26860   26858   26856   26859   26862
   26858   26856   26859   26861   26858   26856   26859   26860
   26859   26862   26865   26868   26859   26862   26865   26867
   26859   26862   26865   26866   26860   26859   26862   26865
   26860   26859   26862   26864   26860   26859   26862   26863
   26861   26859   26862   26865   26861   26859   26862   26864
   26861   26859   26862   26863   26862   26865   26868   26871
   26862   26865   26868   26870   26862   26865   26868   26869
   26863   26862   26865   26868   26863   26862   26865   26867
   26863   26862   26865   26866   26864   26862   26865   26868
   26864   26862   26865   26867   26864   26862   26865   26866
   26865   26868   26871   26874   26865   26868   26871   26873
   26865   26868   26871   26872   26866   26865   26868   26871
   26866   26865   26868   26870   26866   26865   26868   26869
   26867   26865   26868   26871   26867   26865   26868   26870
   26867   26865   26868   26869   26869   26868   26871   26874
   26869   26868   26871   26873   26869   26868   26871   26872
   26870   26868   26871   26874   26870   26868   26871   26873
   26870   26868   26871   26872   26875   26878   26881   26884
   26875   26878   26881   26883   26875   26878   26881   26882
   26876   26875   26878   26881   26876   26875   26878   26880
   26876   26875   26878   26879   26877   26875   26878   26881
   26877   26875   26878   26880   26877   26875   26878   26879
   26878   26881   26884   26887   26878   26881   26884   26886
   26878   26881   26884   26885   26879   26878   26881   26884
   26879   26878   26881   26883   26879   26878   26881   26882
   26880   26878   26881   26884   26880   26878   26881   26883
   26880   26878   26881   26882   26881   26884   26887   26890
   26881   26884   26887   26889   26881   26884   26887   26888
   26882   26881   26884   26887   26882   26881   26884   26886
   26882   26881   26884   26885   26883   26881   26884   26887
   26883   26881   26884   26886   26883   26881   26884   26885
   26884   26887   26890   26893   26884   26887   26890   26892
   26884   26887   26890   26891   26885   26884   26887   26890
   26885   26884   26887   26889   26885   26884   26887   26888
   26886   26884   26887   26890   26886   26884   26887   26889
   26886   26884   26887   26888   26887   26890   26893   26896
   26887   26890   26893   26895   26887   26890   26893   26894
   26888   26887   26890   26893   26888   26887   26890   26892
   26888   26887   26890   26891   26889   26887   26890   26893
   26889   26887   26890   26892   26889   26887   26890   26891
   26890   26893   26896   26899   26890   26893   26896   26898
   26890   26893   26896   26897   26891   26890   26893   26896
   26891   26890   26893   26895   26891   26890   26893   26894
   26892   26890   26893   26896   26892   26890   26893   26895
   26892   26890   26893   26894   26893   26896   26899   26902
   26893   26896   26899   26901   26893   26896   26899   26900
   26894   26893   26896   26899   26894   26893   26896   26898
   26894   26893   26896   26897   26895   26893   26896   26899
   26895   26893   26896   26898   26895   26893   26896   26897
   26896   26899   26902   26905   26896   26899   26902   26904
   26896   26899   26902   26903   26897   26896   26899   26902
   26897   26896   26899   26901   26897   26896   26899   26900
   26898   26896   26899   26902   26898   26896   26899   26901
   26898   26896   26899   26900   26899   26902   26905   26908
   26899   26902   26905   26907   26899   26902   26905   26906
   26900   26899   26902   26905   26900   26899   26902   26904
   26900   26899   26902   26903   26901   26899   26902   26905
   26901   26899   26902   26904   26901   26899   26902   26903
   26902   26905   26908   26911   26902   26905   26908   26910
   26902   26905   26908   26909   26903   26902   26905   26908
   26903   26902   26905   26907   26903   26902   26905   26906
   26904   26902   26905   26908   26904   26902   26905   26907
   26904   26902   26905   26906   26905   26908   26911   26914
   26905   26908   26911   26913   26905   26908   26911   26912
   26906   26905   26908   26911   26906   26905   26908   26910
   26906   26905   26908   26909   26907   26905   26908   26911
   26907   26905   26908   26910   26907   26905   26908   26909
   26908   26911   26914   26917   26908   26911   26914   26916
   26908   26911   26914   26915   26909   26908   26911   26914
   26909   26908   26911   26913   26909   26908   26911   26912
   26910   26908   26911   26914   26910   26908   26911   26913
   26910   26908   26911   26912   26912   26911   26914   26917
   26912   26911   26914   26916   26912   26911   26914   26915
   26913   26911   26914   26917   26913   26911   26914   26916
   26913   26911   26914   26915   26918   26922   26927   26933
   26918   26922   26927   26929   26918   26922   26927   26928
   26918   26922   26924   26925   26918   26922   26924   26926
   26919   26918   26922   26927   26919   26918   26922   26923
   26919   26918   26922   26924   26920   26918   26922   26927
   26920   26918   26922   26923   26920   26918   26922   26924
   26921   26918   26922   26927   26921   26918   26922   26923
   26921   26918   26922   26924   26922   26927   26933   26930
   26923   26922   26927   26933   26923   26922   26927   26929
   26923   26922   26927   26928   26923   26922   26924   26925
   26923   26922   26924   26926   26924   26922   26927   26933
   26924   26922   26927   26929   26924   26922   26927   26928
   26927   26922   26924   26925   26927   26922   26924   26926
   26932   26930   26933   26927   26931   26930   26933   26927
   26934   26930   26933   26927   26928   26927   26933   26930
   26929   26927   26933   26930   26930   26934   26935   26938
   26930   26934   26935   26937   26930   26934   26935   26936
   26931   26930   26934   26935   26932   26930   26934   26935
   26933   26930   26934   26935   26934   26935   26938   26940
   26934   26935   26938   26946   26934   26935   26938   26939
   26935   26938   26940   26941   26935   26938   26946   26949
   26935   26938   26946   26948   26935   26938   26946   26947
   26936   26935   26938   26940   26936   26935   26938   26946
   26936   26935   26938   26939   26937   26935   26938   26940
   26937   26935   26938   26946   26937   26935   26938   26939
   26938   26940   26941   26942   26938   26940   26941   26943
   26938   26946   26949   26950   26939   26938   26940   26941
   26939   26938   26946   26949   26939   26938   26946   26948
   26939   26938   26946   26947   26940   26941   26943   26955
   26940   26941   26943   26945   26940   26941   26943   26944
   26940   26938   26946   26949   26940   26938   26946   26948
   26940   26938   26946   26947   26941   26943   26955   26958
   26941   26943   26955   26957   26941   26943   26955   26956
   26946   26938   26940   26941   26942   26941   26943   26955
   26942   26941   26943   26945   26942   26941   26943   26944
   26943   26955   26958   26961   26943   26955   26958   26960
   26943   26955   26958   26959   26944   26943   26955   26958
   26944   26943   26955   26957   26944   26943   26955   26956
   26945   26943   26955   26958   26945   26943   26955   26957
   26945   26943   26955   26956   26946   26949   26950   26951
   26946   26949   26950   26952   26947   26946   26949   26950
   26948   26946   26949   26950   26949   26950   26952   27002
   26949   26950   26952   26954   26949   26950   26952   26953
   26950   26952   27002   27005   26950   26952   27002   27004
   26950   26952   27002   27003   26951   26950   26952   27002
   26951   26950   26952   26954   26951   26950   26952   26953
   26952   27002   27005   27008   26952   27002   27005   27007
   26952   27002   27005   27006   26953   26952   27002   27005
   26953   26952   27002   27004   26953   26952   27002   27003
   26954   26952   27002   27005   26954   26952   27002   27004
   26954   26952   27002   27003   26955   26958   26961   26964
   26955   26958   26961   26963   26955   26958   26961   26962
   26956   26955   26958   26961   26956   26955   26958   26960
   26956   26955   26958   26959   26957   26955   26958   26961
   26957   26955   26958   26960   26957   26955   26958   26959
   26958   26961   26964   26967   26958   26961   26964   26966
   26958   26961   26964   26965   26959   26958   26961   26964
   26959   26958   26961   26963   26959   26958   26961   26962
   26960   26958   26961   26964   26960   26958   26961   26963
   26960   26958   26961   26962   26961   26964   26967   26970
   26961   26964   26967   26969   26961   26964   26967   26968
   26962   26961   26964   26967   26962   26961   26964   26966
   26962   26961   26964   26965   26963   26961   26964   26967
   26963   26961   26964   26966   26963   26961   26964   26965
   26964   26967   26970   26973   26964   26967   26970   26972
   26964   26967   26970   26971   26965   26964   26967   26970
   26965   26964   26967   26969   26965   26964   26967   26968
   26966   26964   26967   26970   26966   26964   26967   26969
   26966   26964   26967   26968   26967   26970   26973   26975
   26967   26970   26973   26974   26968   26967   26970   26973
   26968   26967   26970   26972   26968   26967   26970   26971
   26969   26967   26970   26973   26969   26967   26970   26972
   26969   26967   26970   26971   26970   26973   26975   26977
   26970   26973   26975   26976   26971   26970   26973   26975
   26971   26970   26973   26974   26972   26970   26973   26975
   26972   26970   26973   26974   26973   26975   26977   26980
   26973   26975   26977   26979   26973   26975   26977   26978
   26974   26973   26975   26977   26974   26973   26975   26976
   26975   26977   26980   26983   26975   26977   26980   26982
   26975   26977   26980   26981   26976   26975   26977   26980
   26976   26975   26977   26979   26976   26975   26977   26978
   26977   26980   26983   26986   26977   26980   26983   26985
   26977   26980   26983   26984   26978   26977   26980   26983
   26978   26977   26980   26982   26978   26977   26980   26981
   26979   26977   26980   26983   26979   26977   26980   26982
   26979   26977   26980   26981   26980   26983   26986   26989
   26980   26983   26986   26988   26980   26983   26986   26987
   26981   26980   26983   26986   26981   26980   26983   26985
   26981   26980   26983   26984   26982   26980   26983   26986
   26982   26980   26983   26985   26982   26980   26983   26984
   26983   26986   26989   26992   26983   26986   26989   26991
   26983   26986   26989   26990   26984   26983   26986   26989
   26984   26983   26986   26988   26984   26983   26986   26987
   26985   26983   26986   26989   26985   26983   26986   26988
   26985   26983   26986   26987   26986   26989   26992   26995
   26986   26989   26992   26994   26986   26989   26992   26993
   26987   26986   26989   26992   26987   26986   26989   26991
   26987   26986   26989   26990   26988   26986   26989   26992
   26988   26986   26989   26991   26988   26986   26989   26990
   26989   26992   26995   26998   26989   26992   26995   26997
   26989   26992   26995   26996   26990   26989   26992   26995
   26990   26989   26992   26994   26990   26989   26992   26993
   26991   26989   26992   26995   26991   26989   26992   26994
   26991   26989   26992   26993   26992   26995   26998   27001
   26992   26995   26998   27000   26992   26995   26998   26999
   26993   26992   26995   26998   26993   26992   26995   26997
   26993   26992   26995   26996   26994   26992   26995   26998
   26994   26992   26995   26997   26994   26992   26995   26996
   26996   26995   26998   27001   26996   26995   26998   27000
   26996   26995   26998   26999   26997   26995   26998   27001
   26997   26995   26998   27000   26997   26995   26998   26999
   27002   27005   27008   27011   27002   27005   27008   27010
   27002   27005   27008   27009   27003   27002   27005   27008
   27003   27002   27005   27007   27003   27002   27005   27006
   27004   27002   27005   27008   27004   27002   27005   27007
   27004   27002   27005   27006   27005   27008   27011   27014
   27005   27008   27011   27013   27005   27008   27011   27012
   27006   27005   27008   27011   27006   27005   27008   27010
   27006   27005   27008   27009   27007   27005   27008   27011
   27007   27005   27008   27010   27007   27005   27008   27009
   27008   27011   27014   27017   27008   27011   27014   27016
   27008   27011   27014   27015   27009   27008   27011   27014
   27009   27008   27011   27013   27009   27008   27011   27012
   27010   27008   27011   27014   27010   27008   27011   27013
   27010   27008   27011   27012   27011   27014   27017   27020
   27011   27014   27017   27019   27011   27014   27017   27018
   27012   27011   27014   27017   27012   27011   27014   27016
   27012   27011   27014   27015   27013   27011   27014   27017
   27013   27011   27014   27016   27013   27011   27014   27015
   27014   27017   27020   27023   27014   27017   27020   27022
   27014   27017   27020   27021   27015   27014   27017   27020
   27015   27014   27017   27019   27015   27014   27017   27018
   27016   27014   27017   27020   27016   27014   27017   27019
   27016   27014   27017   27018   27017   27020   27023   27026
   27017   27020   27023   27025   27017   27020   27023   27024
   27018   27017   27020   27023   27018   27017   27020   27022
   27018   27017   27020   27021   27019   27017   27020   27023
   27019   27017   27020   27022   27019   27017   27020   27021
   27020   27023   27026   27029   27020   27023   27026   27028
   27020   27023   27026   27027   27021   27020   27023   27026
   27021   27020   27023   27025   27021   27020   27023   27024
   27022   27020   27023   27026   27022   27020   27023   27025
   27022   27020   27023   27024   27023   27026   27029   27032
   27023   27026   27029   27031   27023   27026   27029   27030
   27024   27023   27026   27029   27024   27023   27026   27028
   27024   27023   27026   27027   27025   27023   27026   27029
   27025   27023   27026   27028   27025   27023   27026   27027
   27026   27029   27032   27035   27026   27029   27032   27034
   27026   27029   27032   27033   27027   27026   27029   27032
   27027   27026   27029   27031   27027   27026   27029   27030
   27028   27026   27029   27032   27028   27026   27029   27031
   27028   27026   27029   27030   27029   27032   27035   27038
   27029   27032   27035   27037   27029   27032   27035   27036
   27030   27029   27032   27035   27030   27029   27032   27034
   27030   27029   27032   27033   27031   27029   27032   27035
   27031   27029   27032   27034   27031   27029   27032   27033
   27032   27035   27038   27041   27032   27035   27038   27040
   27032   27035   27038   27039   27033   27032   27035   27038
   27033   27032   27035   27037   27033   27032   27035   27036
   27034   27032   27035   27038   27034   27032   27035   27037
   27034   27032   27035   27036   27035   27038   27041   27044
   27035   27038   27041   27043   27035   27038   27041   27042
   27036   27035   27038   27041   27036   27035   27038   27040
   27036   27035   27038   27039   27037   27035   27038   27041
   27037   27035   27038   27040   27037   27035   27038   27039
   27039   27038   27041   27044   27039   27038   27041   27043
   27039   27038   27041   27042   27040   27038   27041   27044
   27040   27038   27041   27043   27040   27038   27041   27042

     189 !NIMPHI: impropers
       5       1       7       6       7       5       9       8
      18      14      19      17      17      14      19      18
      19      17      20      21      19      17      21      20
      22       9      24      23      24      22      26      25
      32      26      34      33      34      32      38      35
      46      38      48      47      48      46      50      49
      56      50      58      57      58      56      60      59
      77      60      79      78      79      77      81      80
      99      81     101     100     101      99     103     102
     121     103     123     122     123     121     125     124
     131     125     133     132     133     131     135     134
     141     135     143     142     143     141     145     144
     163     145     165     164     165     163     167     166
     185     167     187     186     187     185     189     188
     204     189     206     205     206     204     208     207
     214     208     216     215     216     214     218     217
     226     223     228     227     229     218     231     230
     231     229     233     232     240     233     242     241
   16392   16393   16443   16391   16444   16391   16445   16443
   16521   16520   16523   16522   16530   16529   16532   16531
   16631   16629   16633   16632   16648   16647   16650   16649
   16657   16656   16659   16658   16780   16781   16831   16779
   16832   16779   16833   16831   16909   16908   16911   16910
   16918   16917   16920   16919   17034   17033   17036   17035
   17043   17042   17045   17044   17144   17142   17146   17145
   17161   17160   17163   17162   17170   17169   17172   17171
   17286   17285   17288   17287   17295   17294   17297   17296
   17396   17394   17398   17397   17413   17412   17415   17414
   17422   17421   17424   17423   17547   17546   17549   17548
   17556   17555   17558   17557   17672   17671   17674   17673
   17681   17680   17683   17682   17806   17805   17808   17807
   17815   17814   17817   17816   17916   17914   17918   17917
   17933   17932   17935   17934   17942   17941   17944   17943
   18065   18066   18116   18064   18117   18064   18118   18116
   18194   18193   18196   18195   18203   18202   18205   18204
   18304   18302   18306   18305   18321   18320   18323   18322
   18330   18329   18332   18331   18453   18454   18504   18452
   18505   18452   18506   18504   18582   18581   18584   18583
   18591   18590   18593   18592   18714   18715   18765   18713
   18766   18713   18767   18765   18834   18833   18836   18835
   18843   18842   18845   18844   18968   18967   18970   18969
   18977   18976   18979   18978   19102   19101   19104   19103
   19111   19110   19113   19112   19227   19226   19229   19228
   19236   19235   19238   19237   19361   19360   19363   19362
   19370   19369   19372   19371   19486   19485   19488   19487
   19495   19494   19497   19496   19611   19610   19613   19612
   19620   19619   19622   19621   19736   19735   19738   19737
   19745   19744   19747   19746   19868   19869   19919   19867
   19920   19867   19921   19919   19995   19996   20046   19994
   20047   19994   20048   20046   20115   20114   20117   20116
   20124   20123   20126   20125   20240   20239   20242   20241
   20249   20248   20251   20250   20372   20373   20423   20371
   20424   20371   20425   20423   20477   20475   20479   20478
   20494   20493   20496   20495   20503   20502   20505   20504
   20619   20618   20621   20620   20628   20627   20630   20629
   20753   20752   20755   20754   20762   20761   20764   20763
   20878   20877   20880   20879   20887   20886   20889   20888
   21012   21011   21014   21013   21021   21020   21023   21022
   21146   21145   21148   21147   21155   21154   21157   21156
   21278   21279   21329   21277   21330   21277   21331   21329
   22937   22935   22939   22938   22954   22953   22956   22955
   22963   22962   22965   22964   23086   23087   23137   23085
   23138   23085   23139   23137   23191   23189   23193   23192
   23208   23207   23210   23209   23217   23216   23219   23218
   23318   23316   23320   23319   23335   23334   23337   23336
   23344   23343   23346   23345   23469   23468   23471   23470
   23478   23477   23480   23479   23601   23602   23652   23600
   23653   23600   23654   23652   23730   23729   23732   23731
   23739   23738   23741   23740   23862   23863   23913   23861
   23914   23861   23915   23913   23982   23981   23984   23983
   23991   23990   23993   23992   24092   24090   24094   24093
   24109   24108   24111   24110   24118   24117   24120   24119
   24243   24242   24245   24244   24252   24251   24254   24253
   24368   24367   24370   24369   24377   24376   24379   24378
   24502   24501   24504   24503   24511   24510   24513   24512
   24634   24635   24685   24633   24686   24633   24687   24685
   24763   24762   24765   24764   24772   24771   24774   24773
   24888   24887   24890   24889   24897   24896   24899   24898
   25013   25012   25015   25014   25022   25021   25024   25023
   25138   25137   25140   25139   25147   25146   25149   25148
   25263   25262   25265   25264   25272   25271   25274   25273
   25395   25396   25446   25394   25447   25394   25448   25446
   25524   25523   25526   25525   25533   25532   25535   25534
   25649   25648   25651   25650   25658   25657   25660   25659
   25783   25782   25785   25784   25792   25791   25794   25793
   25908   25907   25910   25909   25917   25916   25919   25918
   26033   26032   26035   26034   26042   26041   26044   26043
   26165   26166   26216   26164   26217   26164   26218   26216
   26294   26293   26296   26295   26303   26302   26305   26304
   26419   26418   26421   26420   26428   26427   26430   26429
   26553   26552   26555   26554   26562   26561   26564   26563
   26685   26686   26736   26684   26737   26684   26738   26736
   26814   26813   26816   26815   26823   26822   26825   26824
   26924   26922   26926   26925   26941   26940   26943   26942
   26950   26949   26952   26951

       0 !NDON: donors


       0 !NACC: acceptors


       0 !NNB

       0       0       0       0       0       0       0       0
       0       0       0       0       0       0       0       0
       0       0       0       0       0       0       0       0
       0       0       0       0       0       0       0       0
       0       0       0       0       0       0       0       0
       0       0       0       0       0       0       0       0
       0       0       0       0       0       0       0       0
       0       0       0       0       0       0       0       0
       0       0       0       0       0       0       0       0
       0       0       0       0       0       0       0       0
       0       0       0       0       0       0       0       0
       0       0       0       0       0       0       0       0
       0       0       0       0       0       0       0       0
       0       0       0       0       0       0       0       0
       0       0       0       0       0       0       0       0
       0       0       0       0       0       0       0       0
       0       0       0       0       0       0       0       0
       0       0       0       0       0       0       0       0
       0       0       0       0       0       0       0       0
       0       0       0       0       0       0       0       0
       0       0       0       0       0       0       0       0
       0       0       0       0       0       0       0       0
       0       0       0       0       0       0       0       0
       0       0       0       0       0       0       0       0
       0       0       0       0       0       0       0       0
       0       0       0       0       0       0       0       0
       0       0       0       0       0       0       0       0
       0       0       0       0       0       0       0       0
       0       0       0       0       0       0       0       0
       0       0       0       0       0       0       0       0
       0       0       0       0       0       0       0       0
       0       0       0       0       0       0       0       0
       0       0       0       0       0       0       0       0
       0       0       0       0       0       0       0       0
       0       0       0       0       0       0       0       0
       0       0       0       0       0       0       0       0
       0       0       0       0       0       0       0       0
       0       0       0       0       0       0       0       0
       0       0       0       0       0       0       0       0
       0       0       0       0       0       0       0       0
       0       0       0       0       0       0       0       0
       0       0       0       0       0       0       0       0
       0       0       0       0       0       0       0       0
       0       0       0       0       0       0       0       0
       0       0       0       0       0       0       0       0
       0       0       0       0       0       0       0       0
       0       0       0       0       0       0       0       0
       0       0       0       0       0       0       0       0
       0       0       0       0       0       0       0       0
       0       0       0       0       0       0       0       0
       0       0       0       0       0       0       0       0
       0       0       0       0       0       0       0       0
       0       0       0       0       0       0       0       0
       0       0       0       0       0       0       0       0
       0       0       0       0       0       0       0       0
       0       0       0       0       0       0       0       0
       0       0       0       0       0       0       0       0
       0       0       0       0       0       0       0       0
       0       0       0       0       0       0       0       0
       0       0       0       0       0       0       0       0
       0       0       0       0       0       0       0       0
       0       0       0       0       0       0       0       0
       0       0       0       0       0       0       0       0
       0       0       0       0       0       0       0       0
       0       0       0       0       0       0       0       0
       0       0       0       0       0       0       0       0
       0       0       0       0       0       0       0       0
       0       0       0       0       0       0       0       0
       0       0       0       0       0       0       0       0
       0       0       0       0       0       0       0       0
       0       0       0       0       0       0       0       0
       0       0       0       0       0       0       0       0
       0       0       0       0       0       0       0       0
       0       0       0       0       0       0       0       0
       0       0       0       0       0       0       0       0
       0       0       0       0       0       0       0       0
       0       0       0       0       0       0       0       0
       0       0       0       0       0       0       0       0
       0       0       0       0       0       0       0       0
       0       0       0       0       0       0       0       0
       0       0       0       0       0       0       0       0
       0       0       0       0       0       0       0       0
       0       0       0       0       0       0       0       0
       0       0       0       0       0       0       0       0
       0       0       0       0       0       0       0       0
       0       0       0       0       0       0       0       0
       0       0       0       0       0       0       0       0
       0       0       0       0       0       0       0       0
       0       0       0       0       0       0       0       0
       0       0       0       0       0       0       0       0
       0       0       0       0       0       0       0       0
       0       0       0       0       0       0       0       0
       0       0       0       0       0       0       0       0
       0       0       0       0       0       0       0       0
       0       0       0       0       0       0       0       0
       0       0       0       0       0       0       0       0
       0       0       0       0       0       0       0       0
       0       0       0       0       0       0       0       0
       0       0       0       0       0       0       0       0
       0       0       0       0       0       0       0       0
       0       0       0       0       0       0       0       0
       0       0       0       0       0       0       0       0
       0       0       0       0       0       0       0       0
       0       0       0       0       0       0       0       0
       0       0       0       0       0       0       0       0
       0       0       0       0       0       0       0       0
       0       0       0       0       0       0       0       0
       0       0       0       0       0       0       0       0
       0       0       0       0       0       0       0       0
       0       0       0       0       0       0       0       0
       0       0       0       0       0       0       0       0
       0       0       0       0       0       0       0       0
       0       0       0       0       0       0       0       0
       0       0       0       0       0       0       0       0
       0       0       0       0       0       0       0       0
       0       0       0       0       0       0       0       0
       0       0       0       0       0       0       0       0
       0       0       0       0       0       0       0       0
       0       0       0       0       0       0       0       0
       0       0       0       0       0       0       0       0
       0       0       0       0       0       0       0       0
       0       0       0       0       0       0       0       0
       0       0       0       0       0       0       0       0
       0       0       0       0       0       0       0       0
       0       0       0       0       0       0       0       0
       0       0       0       0       0       0       0       0
       0       0       0       0       0       0       0       0
       0       0       0       0       0       0       0       0
       0       0       0       0       0       0       0       0
       0       0       0       0       0       0       0       0
       0       0       0       0       0       0       0       0
       0       0       0       0       0       0       0       0
       0       0       0       0       0       0       0       0
       0       0       0       0       0       0       0       0
       0       0       0       0       0       0       0       0
       0       0       0       0       0       0       0       0
       0       0       0       0       0       0       0       0
       0       0       0       0       0       0       0       0
       0       0       0       0       0       0       0       0
       0       0       0       0       0       0       0       0
       0       0       0       0       0       0       0       0
       0       0       0       0       0       0       0       0
       0       0       0       0       0       0       0       0
       0       0       0       0       0       0       0       0
       0       0       0       0       0       0       0       0
       0       0       0       0       0       0       0       0
       0       0       0       0       0       0       0       0
       0       0       0       0       0       0       0       0
       0       0       0       0       0       0       0       0
       0       0       0       0       0       0       0       0
       0       0       0       0       0       0       0       0
       0       0       0       0       0       0       0       0
       0       0       0       0       0       0       0       0
       0       0       0       0       0       0       0       0
       0       0       0       0       0       0       0       0
       0       0       0       0       0       0       0       0
       0       0       0       0       0       0       0       0
       0       0       0       0       0       0       0       0
       0       0       0       0       0       0       0       0
       0       0       0       0       0       0       0       0
       0       0       0       0       0       0       0       0
       0       0       0       0       0       0       0       0
       0       0       0       0       0       0       0       0
       0       0       0       0       0       0       0       0
       0       0       0       0       0       0       0       0
       0       0       0       0       0       0       0       0
       0       0       0       0       0       0       0       0
       0       0       0       0       0       0       0       0
       0       0       0       0       0       0       0       0
       0       0       0       0       0       0       0       0
       0       0       0       0       0       0       0       0
       0       0       0       0       0       0       0       0
       0       0       0       0       0       0       0       0
       0       0       0       0       0       0       0       0
       0       0       0       0       0       0       0       0
       0       0       0       0       0       0       0       0
       0       0       0       0       0       0       0       0
       0       0       0       0       0       0       0       0
       0       0       0       0       0       0       0       0
       0       0       0       0       0       0       0       0
       0       0       0       0       0       0       0       0
       0       0       0       0       0       0       0       0
       0       0       0       0       0       0       0       0
       0       0       0       0       0       0       0       0
       0       0       0       0       0       0       0       0
       0       0       0       0       0       0       0       0
       0       0       0       0       0       0       0       0
       0       0       0       0       0       0       0       0
       0       0       0       0       0       0       0       0
       0       0       0       0       0       0       0       0
       0       0       0       0       0       0       0       0
       0       0       0       0       0       0       0       0
       0       0       0       0       0       0       0       0
       0       0       0       0       0       0       0       0
       0       0       0       0       0       0       0       0
       0       0       0       0       0       0       0       0
       0       0       0       0       0       0       0       0
       0       0       0       0       0       0       0       0
       0       0       0       0       0       0       0       0
       0       0       0       0       0       0       0       0
       0       0       0       0       0       0       0       0
       0       0       0       0       0       0       0       0
       0       0       0       0       0       0       0       0
       0       0       0       0       0       0       0       0
       0       0       0       0       0       0       0       0
       0       0       0       0       0       0       0       0
       0       0       0       0       0       0       0       0
       0       0       0       0       0       0       0       0
       0       0       0       0       0       0       0       0
       0       0       0       0       0       0       0       0
       0       0       0       0       0       0       0       0
       0       0       0       0       0       0       0       0
       0       0       0       0       0       0       0       0
       0       0       0       0       0       0       0       0
       0       0       0       0       0       0       0       0
       0       0       0       0       0       0       0       0
       0       0       0       0       0       0       0       0
       0       0       0       0       0       0       0       0
       0       0       0       0       0       0       0       0
       0       0       0       0       0       0       0       0
       0       0       0       0       0       0       0       0
       0       0       0       0       0       0       0       0
       0       0       0       0       0       0       0       0
       0       0       0       0       0       0       0       0
       0       0       0       0       0       0       0       0
       0       0       0       0       0       0       0       0
       0       0       0       0       0       0       0       0
       0       0       0       0       0       0       0       0
       0       0       0       0       0       0       0       0
       0       0       0       0       0       0       0       0
       0       0       0       0       0       0       0       0
       0       0       0       0       0       0       0       0
       0       0       0       0       0       0       0       0
       0       0       0       0       0       0       0       0
       0       0       0       0       0       0       0       0
       0       0       0       0       0       0       0       0
       0       0       0       0       0       0       0       0
       0       0       0       0       0       0       0       0
       0       0       0       0       0       0       0       0
       0       0       0       0       0       0       0       0
       0       0       0       0       0       0       0       0
       0       0       0       0       0       0       0       0
       0       0       0       0       0       0       0       0
       0       0       0       0       0       0       0       0
       0       0       0       0       0       0       0       0
       0       0       0       0       0       0       0       0
       0       0       0       0       0       0       0       0
       0       0       0       0       0       0       0       0
       0       0       0       0       0       0       0       0
       0       0       0       0       0       0       0       0
       0       0       0       0       0       0       0       0
       0       0       0       0       0       0       0       0
       0       0       0       0       0       0       0       0
       0       0       0       0       0       0       0       0
       0       0       0       0       0       0       0       0
       0       0       0       0       0       0       0       0
       0       0       0       0       0       0       0       0
       0       0       0       0       0       0       0       0
       0       0       0       0       0       0       0       0
       0       0       0       0       0       0       0       0
       0       0       0       0       0       0       0       0
       0       0       0       0       0       0       0       0
       0       0       0       0       0       0       0       0
       0       0       0       0       0       0       0       0
       0       0       0       0       0       0       0       0
       0       0       0       0       0       0       0       0
       0       0       0       0       0       0       0       0
       0       0       0       0       0       0       0       0
       0       0       0       0       0       0       0       0
       0       0       0       0       0       0       0       0
       0       0       0       0       0       0       0       0
       0       0       0       0       0       0       0       0
       0       0       0       0       0       0       0       0
       0       0       0       0       0       0       0       0
       0       0       0       0       0       0       0       0
       0       0       0       0       0       0       0       0
       0       0       0       0       0       0       0       0
       0       0       0       0       0       0       0       0
       0       0       0       0       0       0       0       0
       0       0       0       0       0       0       0       0
       0       0       0       0       0       0       0       0
       0       0       0       0       0       0       0       0
       0       0       0       0       0       0       0       0
       0       0       0       0       0       0       0       0
       0       0       0       0       0       0       0       0
       0       0       0       0       0       0       0       0
       0       0       0       0       0       0       0       0
       0       0       0       0       0       0       0       0
       0       0       0       0       0       0       0       0
       0       0       0       0       0       0       0       0
       0       0       0       0       0       0       0       0
       0       0       0       0       0       0       0       0
       0       0       0       0       0       0       0       0
       0       0       0       0       0       0       0       0
       0       0       0       0       0       0       0       0
       0       0       0       0       0       0       0       0
       0       0       0       0       0       0       0       0
       0       0       0       0       0       0       0       0
       0       0       0       0       0       0       0       0
       0       0       0       0       0       0       0       0
       0       0       0       0       0       0       0       0
       0       0       0       0       0       0       0       0
       0       0       0       0       0       0       0       0
       0       0       0       0       0       0       0       0
       0       0       0       0       0       0       0       0
       0       0       0       0       0       0       0       0
       0       0       0       0       0       0       0       0
       0       0       0       0       0       0       0       0
       0       0       0       0       0       0       0       0
       0       0       0       0       0       0       0       0
       0       0       0       0       0       0       0       0
       0       0       0       0       0       0       0       0
       0       0       0       0       0       0       0       0
       0       0       0       0       0       0       0       0
       0       0       0       0       0       0       0       0
       0       0       0       0       0       0       0       0
       0       0       0       0       0       0       0       0
       0       0       0       0       0       0       0       0
       0       0       0       0       0       0       0       0
       0       0       0       0       0       0       0       0
       0       0       0       0       0       0       0       0
       0       0       0       0       0       0       0       0
       0       0       0       0       0       0       0       0
       0       0       0       0       0       0       0       0
       0       0       0       0       0       0       0       0
       0       0       0       0       0       0       0       0
       0       0       0       0       0       0       0       0
       0       0       0       0       0       0       0       0
       0       0       0       0       0       0       0       0
       0       0       0       0       0       0       0       0
       0       0       0       0       0       0       0       0
       0       0       0       0       0       0       0       0
       0       0       0       0       0       0       0       0
       0       0       0       0       0       0       0       0
       0       0       0       0       0       0       0       0
       0       0       0       0       0       0       0       0
       0       0       0       0       0       0       0       0
       0       0       0       0       0       0       0       0
       0       0       0       0       0       0       0       0
       0       0       0       0       0       0       0       0
       0       0       0       0       0       0       0       0
       0       0       0       0       0       0       0       0
       0       0       0       0       0       0       0       0
       0       0       0       0       0       0       0       0
       0       0       0       0       0       0       0       0
       0       0       0       0       0       0       0       0
       0       0       0       0       0       0       0       0
       0       0       0       0       0       0       0       0
       0       0       0       0       0       0       0       0
       0       0       0       0       0       0       0       0
       0       0       0       0       0       0       0       0
       0       0       0       0       0       0       0       0
       0       0       0       0       0       0       0       0
       0       0       0       0       0       0       0       0
       0       0       0       0       0       0       0       0
       0       0       0       0       0       0       0       0
       0       0       0       0       0       0       0       0
       0       0       0       0       0       0       0       0
       0       0       0       0       0       0       0       0
       0       0       0       0       0       0       0       0
       0       0       0       0       0       0       0       0
       0       0       0       0       0       0       0       0
       0       0       0       0       0       0       0       0
       0       0       0       0       0       0       0       0
       0       0       0       0       0       0       0       0
       0       0       0       0       0       0       0       0
       0       0       0       0       0       0       0       0
       0       0       0       0       0       0       0       0
       0       0       0       0       0       0       0       0
       0       0       0       0       0       0       0       0
       0       0       0       0       0       0       0       0
       0       0       0       0       0       0       0       0
       0       0       0       0       0       0       0       0
       0       0       0       0       0       0       0       0
       0       0       0       0       0       0       0       0
       0       0       0       0       0       0       0       0
       0       0       0       0       0       0       0       0
       0       0       0       0       0       0       0       0
       0       0       0       0       0       0       0       0
       0       0       0       0       0       0       0       0
       0       0       0       0       0       0       0       0
       0       0       0       0       0       0       0       0
       0       0       0       0       0       0       0       0
       0       0       0       0       0       0       0       0
       0       0       0       0       0       0       0       0
       0       0       0       0       0       0       0       0
       0       0       0       0       0       0       0       0
       0       0       0       0       0       0       0       0
       0       0       0       0       0       0       0       0
       0       0       0       0       0       0       0       0
       0       0       0       0       0       0       0       0
       0       0       0       0       0       0       0       0
       0       0       0       0       0       0       0       0
       0       0       0       0       0       0       0       0
       0       0       0       0       0       0       0       0
       0       0       0       0       0       0       0       0
       0       0       0       0       0       0       0       0
       0       0       0       0       0       0       0       0
       0       0       0       0       0       0       0       0
       0       0       0       0       0       0       0       0
       0       0       0       0       0       0       0       0
       0       0       0       0       0       0       0       0
       0       0       0       0       0       0       0       0
       0       0       0       0       0       0       0       0
       0       0       0       0       0       0       0       0
       0       0       0       0       0       0       0       0
       0       0       0       0       0       0       0       0
       0       0       0       0       0       0       0       0
       0       0       0       0       0       0       0       0
       0       0       0       0       0       0       0       0
       0       0       0       0       0       0       0       0
       0       0       0       0       0       0       0       0
       0       0       0       0       0       0       0       0
       0       0       0       0       0       0       0       0
       0       0       0       0       0       0       0       0
       0       0       0       0       0       0       0       0
       0       0       0       0       0       0       0       0
       0       0       0       0       0       0       0       0
       0       0       0       0       0       0       0       0
       0       0       0       0       0       0       0       0
       0       0       0       0       0       0       0       0
       0       0       0       0       0       0       0       0
       0       0       0       0       0       0       0       0
       0       0       0       0       0       0       0       0
       0       0       0       0       0       0       0       0
       0       0       0       0       0       0       0       0
       0       0       0       0       0       0       0       0
       0       0       0       0       0       0       0       0
       0       0       0       0       0       0       0       0
       0       0       0       0       0       0       0       0
       0       0       0       0       0       0       0       0
       0       0       0       0       0       0       0       0
       0       0       0       0       0       0       0       0
       0       0       0       0       0       0       0       0
       0       0       0       0       0       0       0       0
       0       0       0       0       0       0       0       0
       0       0       0       0       0       0       0       0
       0       0       0       0       0       0       0       0
       0       0       0       0       0       0       0       0
       0       0       0       0       0       0       0       0
       0       0       0       0       0       0       0       0
       0       0       0       0       0       0       0       0
       0       0       0       0       0       0       0       0
       0       0       0       0       0       0       0       0
       0       0       0       0       0       0       0       0
       0       0       0       0       0       0       0       0
       0       0       0       0       0       0       0       0
       0       0       0       0       0       0       0       0
       0       0       0       0       0       0       0       0
       0       0       0       0       0       0       0       0
       0       0       0       0       0       0       0       0
       0       0       0       0       0       0       0       0
       0       0       0       0       0       0       0       0
       0       0       0       0       0       0       0       0
       0       0       0       0       0       0       0       0
       0       0       0       0       0       0       0       0
       0       0       0       0       0       0       0       0
       0       0       0       0       0       0       0       0
       0       0       0       0       0       0       0       0
       0       0       0       0       0       0       0       0
       0       0       0       0       0       0       0       0
       0       0       0       0       0       0       0       0
       0       0       0       0       0       0       0       0
       0       0       0       0       0       0       0       0
       0       0       0       0       0       0       0       0
       0       0       0       0       0       0       0       0
       0       0       0       0       0       0       0       0
       0       0       0       0       0       0       0       0
       0       0       0       0       0       0       0       0
       0       0       0       0       0       0       0       0
       0       0       0       0       0       0       0       0
       0       0       0       0       0       0       0       0
       0       0       0       0       0       0       0       0
       0       0       0       0       0       0       0       0
       0       0       0       0       0       0       0       0
       0       0       0       0       0       0       0       0
       0       0       0       0       0       0       0       0
       0       0       0       0       0       0       0       0
       0       0       0       0       0       0       0       0
       0       0       0       0       0       0       0       0
       0       0       0       0       0       0       0       0
       0       0       0       0       0       0       0       0
       0       0       0       0       0       0       0       0
       0       0       0       0       0       0       0       0
       0       0       0       0       0       0       0       0
       0       0       0       0       0       0       0       0
       0       0       0       0       0       0       0       0
       0       0       0       0       0       0       0       0
       0       0       0       0       0       0       0       0
       0       0       0       0       0       0       0       0
       0       0       0       0       0       0       0       0
       0       0       0       0       0       0       0       0
       0       0       0       0       0       0       0       0
       0       0       0       0       0       0       0       0
       0       0       0       0       0       0       0       0
       0       0       0       0       0       0       0       0
       0       0       0       0       0       0       0       0
       0       0       0       0       0       0       0       0
       0       0       0       0       0       0       0       0
       0       0       0       0       0       0       0       0
       0       0       0       0       0       0       0       0
       0       0       0       0       0       0       0       0
       0       0       0       0       0       0       0       0
       0       0       0       0       0       0       0       0
       0       0       0       0       0       0       0       0
       0       0       0       0       0       0       0       0
       0       0       0       0       0       0       0       0
       0       0       0       0       0       0       0       0
       0       0       0       0       0       0       0       0
       0       0       0       0       0       0       0       0
       0       0       0       0       0       0       0       0
       0       0       0       0       0       0       0       0
       0       0       0       0       0       0       0       0
       0       0       0       0       0       0       0       0
       0       0       0       0       0       0       0       0
       0       0       0       0       0       0       0       0
       0       0       0       0       0       0       0       0
       0       0       0       0       0       0       0       0
       0       0       0       0       0       0       0       0
       0       0       0       0       0       0       0       0
       0       0       0       0       0       0       0       0
       0       0       0       0       0       0       0       0
       0       0       0       0       0       0       0       0
       0       0       0       0       0       0       0       0
       0       0       0       0       0       0       0       0
       0       0       0       0       0       0       0       0
       0       0       0       0       0       0       0       0
       0       0       0       0       0       0       0       0
       0       0       0       0       0       0       0       0
       0       0       0       0       0       0       0       0
       0       0       0       0       0       0       0       0
       0       0       0       0       0       0       0       0
       0       0       0       0       0       0       0       0
       0       0       0       0       0       0       0       0
       0       0       0       0       0       0       0       0
       0       0       0       0       0       0       0       0
       0       0       0       0       0       0       0       0
       0       0       0       0       0       0       0       0
       0       0       0       0       0       0       0       0
       0       0       0       0       0       0       0       0
       0       0       0       0       0       0       0       0
       0       0       0       0       0       0       0       0
       0       0       0       0       0       0       0       0
       0       0       0       0       0       0       0       0
       0       0       0       0       0       0       0       0
       0       0       0       0       0       0       0       0
       0       0       0       0       0       0       0       0
       0       0       0       0       0       0       0       0
       0       0       0       0       0       0       0       0
       0       0       0       0       0       0       0       0
       0       0       0       0       0       0       0       0
       0       0       0       0       0       0       0       0
       0       0       0       0       0       0       0       0
       0       0       0       0       0       0       0       0
       0       0       0       0       0       0       0       0
       0       0       0       0       0       0       0       0
       0       0       0       0       0       0       0       0
       0       0       0       0       0       0       0       0
       0       0       0       0       0       0       0       0
       0       0       0       0       0       0       0       0
       0       0       0       0       0       0       0       0
       0       0       0       0       0       0       0       0
       0       0       0       0       0       0       0       0
       0       0       0       0       0       0       0       0
       0       0       0       0       0       0       0       0
       0       0       0       0       0       0       0       0
       0       0       0       0       0       0       0       0
       0       0       0       0       0       0       0       0
       0       0       0       0       0       0       0       0
       0       0       0       0       0       0       0       0
       0       0       0       0       0       0       0       0
       0       0       0       0       0       0       0       0
       0       0       0       0       0       0       0       0
       0       0       0       0       0       0       0       0
       0       0       0       0       0       0       0       0
       0       0       0       0       0       0       0       0
       0       0       0       0       0       0       0       0
       0       0       0       0       0       0       0       0
       0       0       0       0       0       0       0       0
       0       0       0       0       0       0       0       0
       0       0       0       0       0       0       0       0
       0       0       0       0       0       0       0       0
       0       0       0       0       0       0       0       0
       0       0       0       0       0       0       0       0
       0       0       0       0       0       0       0       0
       0       0       0       0       0       0       0       0
       0       0       0       0       0       0       0       0
       0       0       0       0       0       0       0       0
       0       0       0       0       0       0       0       0
       0       0       0       0       0       0       0       0
       0       0       0       0       0       0       0       0
       0       0       0       0       0       0       0       0
       0       0       0       0       0       0       0       0
       0       0       0       0       0       0       0       0
       0       0       0       0       0       0       0       0
       0       0       0       0       0       0       0       0
       0       0       0       0       0       0       0       0
       0       0       0       0       0       0       0       0
       0       0       0       0       0       0       0       0
       0       0       0       0       0       0       0       0
       0       0       0       0       0       0       0       0
       0       0       0       0       0       0       0       0
       0       0       0       0       0       0       0       0
       0       0       0       0       0       0       0       0
       0       0       0       0       0       0       0       0
       0       0       0       0       0       0       0       0
       0       0       0       0       0       0       0       0
       0       0       0       0       0       0       0       0
       0       0       0       0       0       0       0       0
       0       0       0       0       0       0       0       0
       0       0       0       0       0       0       0       0
       0       0       0       0       0       0       0       0
       0       0       0       0       0       0       0       0
       0       0       0       0       0       0       0       0
       0       0       0       0       0       0       0       0
       0       0       0       0       0       0       0       0
       0       0       0       0       0       0       0       0
       0       0       0       0       0       0       0       0
       0       0       0       0       0       0       0       0
       0       0       0       0       0       0       0       0
       0       0       0       0       0       0       0       0
       0       0       0       0       0       0       0       0
       0       0       0       0       0       0       0       0
       0       0       0       0       0       0       0       0
       0       0       0       0       0       0       0       0
       0       0       0       0       0       0       0       0
       0       0       0       0       0       0       0       0
       0       0       0       0       0       0       0       0
       0       0       0       0       0       0       0       0
       0       0       0       0       0       0       0       0
       0       0       0       0       0       0       0       0
       0       0       0       0       0       0       0       0
       0       0       0       0       0       0       0       0
       0       0       0       0       0       0       0       0
       0       0       0       0       0       0       0       0
       0       0       0       0       0       0       0       0
       0       0       0       0       0       0       0       0
       0       0       0       0       0       0       0       0
       0       0       0       0       0       0       0       0
       0       0       0       0       0       0       0       0
       0       0       0       0       0       0       0       0
       0       0       0       0       0       0       0       0
       0       0       0       0       0       0       0       0
       0       0       0       0       0       0       0       0
       0       0       0       0       0       0       0       0
       0       0       0       0       0       0       0       0
       0       0       0       0       0       0       0       0
       0       0       0       0       0       0       0       0
       0       0       0       0       0       0       0       0
       0       0       0       0       0       0       0       0
       0       0       0       0       0       0       0       0
       0       0       0       0       0       0       0       0
       0       0       0       0       0       0       0       0
       0       0       0       0       0       0       0       0
       0       0       0       0       0       0       0       0
       0       0       0       0       0       0       0       0
       0       0       0       0       0       0       0       0
       0       0       0       0       0       0       0       0
       0       0       0       0       0       0       0       0
       0       0       0       0       0       0       0       0
       0       0       0       0       0       0       0       0
       0       0       0       0       0       0       0       0
       0       0       0       0       0       0       0       0
       0       0       0       0       0       0       0       0
       0       0       0       0       0       0       0       0
       0       0       0       0       0       0       0       0
       0       0       0       0       0       0       0       0
       0       0       0       0       0       0       0       0
       0       0       0       0       0       0       0       0
       0       0       0       0       0       0       0       0
       0       0       0       0       0       0       0       0
       0       0       0       0       0       0       0       0
       0       0       0       0       0       0       0       0
       0       0       0       0       0       0       0       0
       0       0       0       0       0       0       0       0
       0       0       0       0       0       0       0       0
       0       0       0       0       0       0       0       0
       0       0       0       0       0       0       0       0
       0       0       0       0       0       0       0       0
       0       0       0       0       0       0       0       0
       0       0       0       0       0       0       0       0
       0       0       0       0       0       0       0       0
       0       0       0       0       0       0       0       0
       0       0       0       0       0       0       0       0
       0       0       0       0       0       0       0       0
       0       0       0       0       0       0       0       0
       0       0       0       0       0       0       0       0
       0       0       0       0       0       0       0       0
       0       0       0       0       0       0       0       0
       0       0       0       0       0       0       0       0
       0       0       0       0       0       0       0       0
       0       0       0       0       0       0       0       0
       0       0       0       0       0       0       0       0
       0       0       0       0       0       0       0       0
       0       0       0       0       0       0       0       0
       0       0       0       0       0       0       0       0
       0       0       0       0       0       0       0       0
       0       0       0       0       0       0       0       0
       0       0       0       0       0       0       0       0
       0       0       0       0       0       0       0       0
       0       0       0       0       0       0       0       0
       0       0       0       0       0       0       0       0
       0       0       0       0       0       0       0       0
       0       0       0       0       0       0       0       0
       0       0       0       0       0       0       0       0
       0       0       0       0       0       0       0       0
       0       0       0       0       0       0       0       0
       0       0       0       0       0       0       0       0
       0       0       0       0       0       0       0       0
       0       0       0       0       0       0       0       0
       0       0       0       0       0       0       0       0
       0       0       0       0       0       0       0       0
       0       0       0       0       0       0       0       0
       0       0       0       0       0       0       0       0
       0       0       0       0       0       0       0       0
       0       0       0       0       0       0       0       0
       0       0       0       0       0       0       0       0
       0       0       0       0       0       0       0       0
       0       0       0       0       0       0       0       0
       0       0       0       0       0       0       0       0
       0       0       0       0       0       0       0       0
       0       0       0       0       0       0       0       0
       0       0       0       0       0       0       0       0
       0       0       0       0       0       0       0       0
       0       0       0       0       0       0       0       0
       0       0       0       0       0       0       0       0
       0       0       0       0       0       0       0       0
       0       0       0       0       0       0       0       0
       0       0       0       0       0       0       0       0
       0       0       0       0       0       0       0       0
       0       0       0       0       0       0       0       0
       0       0       0       0       0       0       0       0
       0       0       0       0       0       0       0       0
       0       0       0       0       0       0       0       0
       0       0       0       0       0       0       0       0
       0       0       0       0       0       0       0       0
       0       0       0       0       0       0       0       0
       0       0       0       0       0       0       0       0
       0       0       0       0       0       0       0       0
       0       0       0       0       0       0       0       0
       0       0       0       0       0       0       0       0
       0       0       0       0       0       0       0       0
       0       0       0       0       0       0       0       0
       0       0       0       0       0       0       0       0
       0       0       0       0       0       0       0       0
       0       0       0       0       0       0       0       0
       0       0       0       0       0       0       0       0
       0       0       0       0       0       0       0       0
       0       0       0       0       0       0       0       0
       0       0       0       0       0       0       0       0
       0       0       0       0       0       0       0       0
       0       0       0       0       0       0       0       0
       0       0       0       0       0       0       0       0
       0       0       0       0       0       0       0       0
       0       0       0       0       0       0       0       0
       0       0       0       0       0       0       0       0
       0       0       0       0       0       0       0       0
       0       0       0       0       0       0       0       0
       0       0       0       0       0       0       0       0
       0       0       0       0       0       0       0       0
       0       0       0       0       0       0       0       0
       0       0       0       0       0       0       0       0
       0       0       0       0       0       0       0       0
       0       0       0       0       0       0       0       0
       0       0       0       0       0       0       0       0
       0       0       0       0       0       0       0       0
       0       0       0       0       0       0       0       0
       0       0       0       0       0       0       0       0
       0       0       0       0       0       0       0       0
       0       0       0       0       0       0       0       0
       0       0       0       0       0       0       0       0
       0       0       0       0       0       0       0       0
       0       0       0       0       0       0       0       0
       0       0       0       0       0       0       0       0
       0       0       0       0       0       0       0       0
       0       0       0       0       0       0       0       0
       0       0       0       0       0       0       0       0
       0       0       0       0       0       0       0       0
       0       0       0       0       0       0       0       0
       0       0       0       0       0       0       0       0
       0       0       0       0       0       0       0       0
       0       0       0       0       0       0       0       0
       0       0       0       0       0       0       0       0
       0       0       0       0       0       0       0       0
       0       0       0       0       0       0       0       0
       0       0       0       0       0       0       0       0
       0       0       0       0       0       0       0       0
       0       0       0       0       0       0       0       0
       0       0       0       0       0       0       0       0
       0       0       0       0       0       0       0       0
       0       0       0       0       0       0       0       0
       0       0       0       0       0       0       0       0
       0       0       0       0       0       0       0       0
       0       0       0       0       0       0       0       0
       0       0       0       0       0       0       0       0
       0       0       0       0       0       0       0       0
       0       0       0       0       0       0       0       0
       0       0       0       0       0       0       0       0
       0       0       0       0       0       0       0       0
       0       0       0       0       0       0       0       0
       0       0       0       0       0       0       0       0
       0       0       0       0       0       0       0       0
       0       0       0       0       0       0       0       0
       0       0       0       0       0       0       0       0
       0       0       0       0       0       0       0       0
       0       0       0       0       0       0       0       0
       0       0       0       0       0       0       0       0
       0       0       0       0       0       0       0       0
       0       0       0       0       0       0       0       0
       0       0       0       0       0       0       0       0
       0       0       0       0       0       0       0       0
       0       0       0       0       0       0       0       0
       0       0       0       0       0       0       0       0
       0       0       0       0       0       0       0       0
       0       0       0       0       0       0       0       0
       0       0       0       0       0       0       0       0
       0       0       0       0       0       0       0       0
       0       0       0       0       0       0       0       0
       0       0       0       0       0       0       0       0
       0       0       0       0       0       0       0       0
       0       0       0       0       0       0       0       0
       0       0       0       0       0       0       0       0
       0       0       0       0       0       0       0       0
       0       0       0       0       0       0       0       0
       0       0       0       0       0       0       0       0
       0       0       0       0       0       0       0       0
       0       0       0       0       0       0       0       0
       0       0       0       0       0       0       0       0
       0       0       0       0       0       0       0       0
       0       0       0       0       0       0       0       0
       0       0       0       0       0       0       0       0
       0       0       0       0       0       0       0       0
       0       0       0       0       0       0       0       0
       0       0       0       0       0       0       0       0
       0       0       0       0       0       0       0       0
       0       0       0       0       0       0       0       0
       0       0       0       0       0       0       0       0
       0       0       0       0       0       0       0       0
       0       0       0       0       0       0       0       0
       0       0       0       0       0       0       0       0
       0       0       0       0       0       0       0       0
       0       0       0       0       0       0       0       0
       0       0       0       0       0       0       0       0
       0       0       0       0       0       0       0       0
       0       0       0       0       0       0       0       0
       0       0       0       0       0       0       0       0
       0       0       0       0       0       0       0       0
       0       0       0       0       0       0       0       0
       0       0       0       0       0       0       0       0
       0       0       0       0       0       0       0       0
       0       0       0       0       0       0       0       0
       0       0       0       0       0       0       0       0
       0       0       0       0       0       0       0       0
       0       0       0       0       0       0       0       0
       0       0       0       0       0       0       0       0
       0       0       0       0       0       0       0       0
       0       0       0       0       0       0       0       0
       0       0       0       0       0       0       0       0
       0       0       0       0       0       0       0       0
       0       0       0       0       0       0       0       0
       0       0       0       0       0       0       0       0
       0       0       0       0       0       0       0       0
       0       0       0       0       0       0       0       0
       0       0       0       0       0       0       0       0
       0       0       0       0       0       0       0       0
       0       0       0       0       0       0       0       0
       0       0       0       0       0       0       0       0
       0       0       0       0       0       0       0       0
       0       0       0       0       0       0       0       0
       0       0       0       0       0       0       0       0
       0       0       0       0       0       0       0       0
       0       0       0       0       0       0       0       0
       0       0       0       0       0       0       0       0
       0       0       0       0       0       0       0       0
       0       0       0       0       0       0       0       0
       0       0       0       0       0       0       0       0
       0       0       0       0       0       0       0       0
       0       0       0       0       0       0       0       0
       0       0       0       0       0       0       0       0
       0       0       0       0       0       0       0       0
       0       0       0       0       0       0       0       0
       0       0       0       0       0       0       0       0
       0       0       0       0       0       0       0       0
       0       0       0       0       0       0       0       0
       0       0       0       0       0       0       0       0
       0       0       0       0       0       0       0       0
       0       0       0       0       0       0       0       0
       0       0       0       0       0       0       0       0
       0       0       0       0       0       0       0       0
       0       0       0       0       0       0       0       0
       0       0       0       0       0       0       0       0
       0       0       0       0       0       0       0       0
       0       0       0       0       0       0       0       0
       0       0       0       0       0       0       0       0
       0       0       0       0       0       0       0       0
       0       0       0       0       0       0       0       0
       0       0       0       0       0       0       0       0
       0       0       0       0       0       0       0       0
       0       0       0       0       0       0       0       0
       0       0       0       0       0       0       0       0
       0       0       0       0       0       0       0       0
       0       0       0       0       0       0       0       0
       0       0       0       0       0       0       0       0
       0       0       0       0       0       0       0       0
       0       0       0       0       0       0       0       0
       0       0       0       0       0       0       0       0
       0       0       0       0       0       0       0       0
       0       0       0       0       0       0       0       0
       0       0       0       0       0       0       0       0
       0       0       0       0       0       0       0       0
       0       0       0       0       0       0       0       0
       0       0       0       0       0       0       0       0
       0       0       0       0       0       0       0       0
       0       0       0       0       0       0       0       0
       0       0       0       0       0       0       0       0
       0       0       0       0       0       0       0       0
       0       0       0       0       0       0       0       0
       0       0       0       0       0       0       0       0
       0       0       0       0       0       0       0       0
       0       0       0       0       0       0       0       0
       0       0       0       0       0       0       0       0
       0       0       0       0       0       0       0       0
       0       0       0       0       0       0       0       0
       0       0       0       0       0       0       0       0
       0       0       0       0       0       0       0       0
       0       0       0       0       0       0       0       0
       0       0       0       0       0       0       0       0
       0       0       0       0       0       0       0       0
       0       0       0       0       0       0       0       0
       0       0       0       0       0       0       0       0
       0       0       0       0       0       0       0       0
       0       0       0       0       0       0       0       0
       0       0       0       0       0       0       0       0
       0       0       0       0       0       0       0       0
       0       0       0       0       0       0       0       0
       0       0       0       0       0       0       0       0
       0       0       0       0       0       0       0       0
       0       0       0       0       0       0       0       0
       0       0       0       0       0       0       0       0
       0       0       0       0       0       0       0       0
       0       0       0       0       0       0       0       0
       0       0       0       0       0       0       0       0
       0       0       0       0       0       0       0       0
       0       0       0       0       0       0       0       0
       0       0       0       0       0       0       0       0
       0       0       0       0       0       0       0       0
       0       0       0       0       0       0       0       0
       0       0       0       0       0       0       0       0
       0       0       0       0       0       0       0       0
       0       0       0       0       0       0       0       0
       0       0       0       0       0       0       0       0
       0       0       0       0       0       0       0       0
       0       0       0       0       0       0       0       0
       0       0       0       0       0       0       0       0
       0       0       0       0       0       0       0       0
       0       0       0       0       0       0       0       0
       0       0       0       0       0       0       0       0
       0       0       0       0       0       0       0       0
       0       0       0       0       0       0       0       0
       0       0       0       0       0       0       0       0
       0       0       0       0       0       0       0       0
       0       0       0       0       0       0       0       0
       0       0       0       0       0       0       0       0
       0       0       0       0       0       0       0       0
       0       0       0       0       0       0       0       0
       0       0       0       0       0       0       0       0
       0       0       0       0       0       0       0       0
       0       0       0       0       0       0       0       0
       0       0       0       0       0       0       0       0
       0       0       0       0       0       0       0       0
       0       0       0       0       0       0       0       0
       0       0       0       0       0       0       0       0
       0       0       0       0       0       0       0       0
       0       0       0       0       0       0       0       0
       0       0       0       0       0       0       0       0
       0       0       0       0       0       0       0       0
       0       0       0       0       0       0       0       0
       0       0       0       0       0       0       0       0
       0       0       0       0       0       0       0       0
       0       0       0       0       0       0       0       0
       0       0       0       0       0       0       0       0
       0       0       0       0       0       0       0       0
       0       0       0       0       0       0       0       0
       0       0       0       0       0       0       0       0
       0       0       0       0       0       0       0       0
       0       0       0       0       0       0       0       0
       0       0       0       0       0       0       0       0
       0       0       0       0       0       0       0       0
       0       0       0       0       0       0       0       0
       0       0       0       0       0       0       0       0
       0       0       0       0       0       0       0       0
       0       0       0       0       0       0       0       0
       0       0       0       0       0       0       0       0
       0       0       0       0       0       0       0       0
       0       0       0       0       0       0       0       0
       0       0       0       0       0       0       0       0
       0       0       0       0       0       0       0       0
       0       0       0       0       0       0       0       0
       0       0       0       0       0       0       0       0
       0       0       0       0       0       0       0       0
       0       0       0       0       0       0       0       0
       0       0       0       0       0       0       0       0
       0       0       0       0       0       0       0       0
       0       0       0       0       0       0       0       0
       0       0       0       0       0       0       0       0
       0       0       0       0       0       0       0       0
       0       0       0       0       0       0       0       0
       0       0       0       0       0       0       0       0
       0       0       0       0       0       0       0       0
       0       0       0       0       0       0       0       0
       0       0       0       0       0       0       0       0
       0       0       0       0       0       0       0       0
       0       0       0       0       0       0       0       0
       0       0       0       0       0       0       0       0
       0       0       0       0       0       0       0       0
       0       0       0       0       0       0       0       0
       0       0       0       0       0       0       0       0
       0       0       0       0       0       0       0       0
       0       0       0       0       0       0       0       0
       0       0       0       0       0       0       0       0
       0       0       0       0       0       0       0       0
       0       0       0       0       0       0       0       0
       0       0       0       0       0       0       0       0
       0       0       0       0       0       0       0       0
       0       0       0       0       0       0       0       0
       0       0       0       0       0       0       0       0
       0       0       0       0       0       0       0       0
       0       0       0       0       0       0       0       0
       0       0       0       0       0       0       0       0
       0       0       0       0       0       0       0       0
       0       0       0       0       0       0       0       0
       0       0       0       0       0       0       0       0
       0       0       0       0       0       0       0       0
       0       0       0       0       0       0       0       0
       0       0       0       0       0       0       0       0
       0       0       0       0       0       0       0       0
       0       0       0       0       0       0       0       0
       0       0       0       0       0       0       0       0
       0       0       0       0       0       0       0       0
       0       0       0       0       0       0       0       0
       0       0       0       0       0       0       0       0
       0       0       0       0       0       0       0       0
       0       0       0       0       0       0       0       0
       0       0       0       0       0       0       0       0
       0       0       0       0       0       0       0       0
       0       0       0       0       0       0       0       0
       0       0       0       0       0       0       0       0
       0       0       0       0       0       0       0       0
       0       0       0       0       0       0       0       0
       0       0       0       0       0       0       0       0
       0       0       0       0       0       0       0       0
       0       0       0       0       0       0       0       0
       0       0       0       0       0       0       0       0
       0       0       0       0       0       0       0       0
       0       0       0       0       0       0       0       0
       0       0       0       0       0       0       0       0
       0       0       0       0       0       0       0       0
       0       0       0       0       0       0       0       0
       0       0       0       0       0       0       0       0
       0       0       0       0       0       0       0       0
       0       0       0       0       0       0       0       0
       0       0       0       0       0       0       0       0
       0       0       0       0       0       0       0       0
       0       0       0       0       0       0       0       0
       0       0       0       0       0       0       0       0
       0       0       0       0       0       0       0       0
       0       0       0       0       0       0       0       0
       0       0       0       0       0       0       0       0
       0       0       0       0       0       0       0       0
       0       0       0       0       0       0       0       0
       0       0       0       0       0       0       0       0
       0       0       0       0       0       0       0       0
       0       0       0       0       0       0       0       0
       0       0       0       0       0       0       0       0
       0       0       0       0       0       0       0       0
       0       0       0       0       0       0       0       0
       0       0       0       0       0       0       0       0
       0       0       0       0       0       0       0       0
       0       0       0       0       0       0       0       0
       0       0       0       0       0       0       0       0
       0       0       0       0       0       0       0       0
       0       0       0       0       0       0       0       0
       0       0       0       0       0       0       0       0
       0       0       0       0       0       0       0       0
       0       0       0       0       0       0       0       0
       0       0       0       0       0       0       0       0
       0       0       0       0       0       0       0       0
       0       0       0       0       0       0       0       0
       0       0       0       0       0       0       0       0
       0       0       0       0       0       0       0       0
       0       0       0       0       0       0       0       0
       0       0       0       0       0       0       0       0
       0       0       0       0       0       0       0       0
       0       0       0       0       0       0       0       0
       0       0       0       0       0       0       0       0
       0       0       0       0       0       0       0       0
       0       0       0       0       0       0       0       0
       0       0       0       0       0       0       0       0
       0       0       0       0       0       0       0       0
       0       0       0       0       0       0       0       0
       0       0       0       0       0       0       0       0
       0       0       0       0       0       0       0       0
       0       0       0       0       0       0       0       0
       0       0       0       0       0       0       0       0
       0       0       0       0       0       0       0       0
       0       0       0       0       0       0       0       0
       0       0       0       0       0       0       0       0
       0       0       0       0       0       0       0       0
       0       0       0       0       0       0       0       0
       0       0       0       0       0       0       0       0
       0       0       0       0       0       0       0       0
       0       0       0       0       0       0       0       0
       0       0       0       0       0       0       0       0
       0       0       0       0       0       0       0       0
       0       0       0       0       0       0       0       0
       0       0       0       0       0       0       0       0
       0       0       0       0       0       0       0       0
       0       0       0       0       0       0       0       0
       0       0       0       0       0       0       0       0
       0       0       0       0       0       0       0       0
       0       0       0       0       0       0       0       0
       0       0       0       0       0       0       0       0
       0       0       0       0       0       0       0       0
       0       0       0       0       0       0       0       0
       0       0       0       0       0       0       0       0
       0       0       0       0       0       0       0       0
       0       0       0       0       0       0       0       0
       0       0       0       0       0       0       0       0
       0       0       0       0       0       0       0       0
       0       0       0       0       0       0       0       0
       0       0       0       0       0       0       0       0
       0       0       0       0       0       0       0       0
       0       0       0       0       0       0       0       0
       0       0       0       0       0       0       0       0
       0       0       0       0       0       0       0       0
       0       0       0       0       0       0       0       0
       0       0       0       0       0       0       0       0
       0       0       0       0       0       0       0       0
       0       0       0       0       0       0       0       0
       0       0       0       0       0       0       0       0
       0       0       0       0       0       0       0       0
       0       0       0       0       0       0       0       0
       0       0       0       0       0       0       0       0
       0       0       0       0       0       0       0       0
       0       0       0       0       0       0       0       0
       0       0       0       0       0       0       0       0
       0       0       0       0       0       0       0       0
       0       0       0       0       0       0       0       0
       0       0       0       0       0       0       0       0
       0       0       0       0       0       0       0       0
       0       0       0       0       0       0       0       0
       0       0       0       0       0       0       0       0
       0       0       0       0       0       0       0       0
       0       0       0       0       0       0       0       0
       0       0       0       0       0       0       0       0
       0       0       0       0       0       0       0       0
       0       0       0       0       0       0       0       0
       0       0       0       0       0       0       0       0
       0       0       0       0       0       0       0       0
       0       0       0       0       0       0       0       0
       0       0       0       0       0       0       0       0
       0       0       0       0       0       0       0       0
       0       0       0       0       0       0       0       0
       0       0       0       0       0       0       0       0
       0       0       0       0       0       0       0       0
       0       0       0       0       0       0       0       0
       0       0       0       0       0       0       0       0
       0       0       0       0       0       0       0       0
       0       0       0       0       0       0       0       0
       0       0       0       0       0       0       0       0
       0       0       0       0       0       0       0       0
       0       0       0       0       0       0       0       0
       0       0       0       0       0       0       0       0
       0       0       0       0       0       0       0       0
       0       0       0       0       0       0       0       0
       0       0       0       0       0       0       0       0
       0       0       0       0       0       0       0       0
       0       0       0       0       0       0       0       0
       0       0       0       0       0       0       0       0
       0       0       0       0       0       0       0       0
       0       0       0       0       0       0       0       0
       0       0       0       0       0       0       0       0
       0       0       0       0       0       0       0       0
       0       0       0       0       0       0       0       0
       0       0       0       0       0       0       0       0
       0       0       0       0       0       0       0       0
       0       0       0       0       0       0       0       0
       0       0       0       0       0       0       0       0
       0       0       0       0       0       0       0       0
       0       0       0       0       0       0       0       0
       0       0       0       0       0       0       0       0
       0       0       0       0       0       0       0       0
       0       0       0       0       0       0       0       0
       0       0       0       0       0       0       0       0
       0       0       0       0       0       0       0       0
       0       0       0       0       0       0       0       0
       0       0       0       0       0       0       0       0
       0       0       0       0       0       0       0       0
       0       0       0       0       0       0       0       0
       0       0       0       0       0       0       0       0
       0       0       0       0       0       0       0       0
       0       0       0       0       0       0       0       0
       0       0       0       0       0       0       0       0
       0       0       0       0       0       0       0       0
       0       0       0       0       0       0       0       0
       0       0       0       0       0       0       0       0
       0       0       0       0       0       0       0       0
       0       0       0       0       0       0       0       0
       0       0       0       0       0       0       0       0
       0       0       0       0       0       0       0       0
       0       0       0       0       0       0       0       0
       0       0       0       0       0       0       0       0
       0       0       0       0       0       0       0       0
       0       0       0       0       0       0       0       0
       0       0       0       0       0       0       0       0
       0       0       0       0       0       0       0       0
       0       0       0       0       0       0       0       0
       0       0       0       0       0       0       0       0
       0       0       0       0       0       0       0       0
       0       0       0       0       0       0       0       0
       0       0       0       0       0       0       0       0
       0       0       0       0       0       0       0       0
       0       0       0       0       0       0       0       0
       0       0       0       0       0       0       0       0
       0       0       0       0       0       0       0       0
       0       0       0       0       0       0       0       0
       0       0       0       0       0       0       0       0
       0       0       0       0       0       0       0       0
       0       0       0       0       0       0       0       0
       0       0       0       0       0       0       0       0
       0       0       0       0       0       0       0       0
       0       0       0       0       0       0       0       0
       0       0       0       0       0       0       0       0
       0       0       0       0       0       0       0       0
       0       0       0       0       0       0       0       0
       0       0       0       0       0       0       0       0
       0       0       0       0       0       0       0       0
       0       0       0       0       0       0       0       0
       0       0       0       0       0       0       0       0
       0       0       0       0       0       0       0       0
       0       0       0       0       0       0       0       0
       0       0       0       0       0       0       0       0
       0       0       0       0       0       0       0       0
       0       0       0       0       0       0       0       0
       0       0       0       0       0       0       0       0
       0       0       0       0       0       0       0       0
       0       0       0       0       0       0       0       0
       0       0       0       0       0       0       0       0
       0       0       0       0       0       0       0       0
       0       0       0       0       0       0       0       0
       0       0       0       0       0       0       0       0
       0       0       0       0       0       0       0       0
       0       0       0       0       0       0       0       0
       0       0       0       0       0       0       0       0
       0       0       0       0       0       0       0       0
       0       0       0       0       0       0       0       0
       0       0       0       0       0       0       0       0
       0       0       0       0       0       0       0       0
       0       0       0       0       0       0       0       0
       0       0       0       0       0       0       0       0
       0       0       0       0       0       0       0       0
       0       0       0       0       0       0       0       0
       0       0       0       0       0       0       0       0
       0       0       0       0       0       0       0       0
       0       0       0       0       0       0       0       0
       0       0       0       0       0       0       0       0
       0       0       0       0       0       0       0       0
       0       0       0       0       0       0       0       0
       0       0       0       0       0       0       0       0
       0       0       0       0       0       0       0       0
       0       0       0       0       0       0       0       0
       0       0       0       0       0       0       0       0
       0       0       0       0       0       0       0       0
       0       0       0       0       0       0       0       0
       0       0       0       0       0       0       0       0
       0       0       0       0       0       0       0       0
       0       0       0       0       0       0       0       0
       0       0       0       0       0       0       0       0
       0       0       0       0       0       0       0       0
       0       0       0       0       0       0       0       0
       0       0       0       0       0       0       0       0
       0       0       0       0       0       0       0       0
       0       0       0       0       0       0       0       0
       0       0       0       0       0       0       0       0
       0       0       0       0       0       0       0       0
       0       0       0       0       0       0       0       0
       0       0       0       0       0       0       0       0
       0       0       0       0       0       0       0       0
       0       0       0       0       0       0       0       0
       0       0       0       0       0       0       0       0
       0       0       0       0       0       0       0       0
       0       0       0       0       0       0       0       0
       0       0       0       0       0       0       0       0
       0       0       0       0       0       0       0       0
       0       0       0       0       0       0       0       0
       0       0       0       0       0       0       0       0
       0       0       0       0       0       0       0       0
       0       0       0       0       0       0       0       0
       0       0       0       0       0       0       0       0
       0       0       0       0       0       0       0       0
       0       0       0       0       0       0       0       0
       0       0       0       0       0       0       0       0
       0       0       0       0       0       0       0       0
       0       0       0       0       0       0       0       0
       0       0       0       0       0       0       0       0
       0       0       0       0       0       0       0       0
       0       0       0       0       0       0       0       0
       0       0       0       0       0       0       0       0
       0       0       0       0       0       0       0       0
       0       0       0       0       0       0       0       0
       0       0       0       0       0       0       0       0
       0       0       0       0       0       0       0       0
       0       0       0       0       0       0       0       0
       0       0       0       0       0       0       0       0
       0       0       0       0       0       0       0       0
       0       0       0       0       0       0       0       0
       0       0       0       0       0       0       0       0
       0       0       0       0       0       0       0       0
       0       0       0       0       0       0       0       0
       0       0       0       0       0       0       0       0
       0       0       0       0       0       0       0       0
       0       0       0       0       0       0       0       0
       0       0       0       0       0       0       0       0
       0       0       0       0       0       0       0       0
       0       0       0       0       0       0       0       0
       0       0       0       0       0       0       0       0
       0       0       0       0       0       0       0       0
       0       0       0       0       0       0       0       0
       0       0       0       0       0       0       0       0
       0       0       0       0       0       0       0       0
       0       0       0       0       0       0       0       0
       0       0       0       0       0       0       0       0
       0       0       0       0       0       0       0       0
       0       0       0       0       0       0       0       0
       0       0       0       0       0       0       0       0
       0       0       0       0       0       0       0       0
       0       0       0       0       0       0       0       0
       0       0       0       0       0       0       0       0
       0       0       0       0       0       0       0       0
       0       0       0       0       0       0       0       0
       0       0       0       0       0       0       0       0
       0       0       0       0       0       0       0       0
       0       0       0       0       0       0       0       0
       0       0       0       0       0       0       0       0
       0       0       0       0       0       0       0       0
       0       0       0       0       0       0       0       0
       0       0       0       0       0       0       0       0
       0       0       0       0       0       0       0       0
       0       0       0       0       0       0       0       0
       0       0       0       0       0       0       0       0
       0       0       0       0       0       0       0       0
       0       0       0       0       0       0       0       0
       0       0       0       0       0       0       0       0
       0       0       0       0       0       0       0       0
       0       0       0       0       0       0       0       0
       0       0       0       0       0       0       0       0
       0       0       0       0       0       0       0       0
       0       0       0       0       0       0       0       0
       0       0       0       0       0       0       0       0
       0       0       0       0       0       0       0       0
       0       0       0       0       0       0       0       0
       0       0       0       0       0       0       0       0
       0       0       0       0       0       0       0       0
       0       0       0       0       0       0       0       0
       0       0       0       0       0       0       0       0
       0       0       0       0       0       0       0       0
       0       0       0       0       0       0       0       0
       0       0       0       0       0       0       0       0
       0       0       0       0       0       0       0       0
       0       0       0       0       0       0       0       0
       0       0       0       0       0       0       0       0
       0       0       0       0       0       0       0       0
       0       0       0       0       0       0       0       0
       0       0       0       0       0       0       0       0
       0       0       0       0       0       0       0       0
       0       0       0       0       0       0       0       0
       0       0       0       0       0       0       0       0
       0       0       0       0       0       0       0       0
       0       0       0       0       0       0       0       0
       0       0       0       0       0       0       0       0
       0       0       0       0       0       0       0       0
       0       0       0       0       0       0       0       0
       0       0       0       0       0       0       0       0
       0       0       0       0       0       0       0       0
       0       0       0       0       0       0       0       0
       0       0       0       0       0       0       0       0
       0       0       0       0       0       0       0       0
       0       0       0       0       0       0       0       0
       0       0       0       0       0       0       0       0
       0       0       0       0       0       0       0       0
       0       0       0       0       0       0       0       0
       0       0       0       0       0       0       0       0
       0       0       0       0       0       0       0       0
       0       0       0       0       0       0       0       0
       0       0       0       0       0       0       0       0
       0       0       0       0       0       0       0       0
       0       0       0       0       0       0       0       0
       0       0       0       0       0       0       0       0
       0       0       0       0       0       0       0       0
       0       0       0       0       0       0       0       0
       0       0       0       0       0       0       0       0
       0       0       0       0       0       0       0       0
       0       0       0       0       0       0       0       0
       0       0       0       0       0       0       0       0
       0       0       0       0       0       0       0       0
       0       0       0       0       0       0       0       0
       0       0       0       0       0       0       0       0
       0       0       0       0       0       0       0       0
       0       0       0       0       0       0       0       0
       0       0       0       0       0       0       0       0
       0       0       0       0       0       0       0       0
       0       0       0       0       0       0       0       0
       0       0       0       0       0       0       0       0
       0       0       0       0       0       0       0       0
       0       0       0       0       0       0       0       0
       0       0       0       0       0       0       0       0
       0       0       0       0       0       0       0       0
       0       0       0       0       0       0       0       0
       0       0       0       0       0       0       0       0
       0       0       0       0       0       0       0       0
       0       0       0       0       0       0       0       0
       0       0       0       0       0       0       0       0
       0       0       0       0       0       0       0       0
       0       0       0       0       0       0       0       0
       0       0       0       0       0       0       0       0
       0       0       0       0       0       0       0       0
       0       0       0       0       0       0       0       0
       0       0       0       0       0       0       0       0
       0       0       0       0       0       0       0       0
       0       0       0       0       0       0       0       0
       0       0       0       0       0       0       0       0
       0       0       0       0       0       0       0       0
       0       0       0       0       0       0       0       0
       0       0       0       0       0       0       0       0
       0       0       0       0       0       0       0       0
       0       0       0       0       0       0       0       0
       0       0       0       0       0       0       0       0
       0       0       0       0       0       0       0       0
       0       0       0       0       0       0       0       0
       0       0       0       0       0       0       0       0
       0       0       0       0       0       0       0       0
       0       0       0       0       0       0       0       0
       0       0       0       0       0       0       0       0
       0       0       0       0       0       0       0       0
       0       0       0       0       0       0       0       0
       0       0       0       0       0       0       0       0
       0       0       0       0       0       0       0       0
       0       0       0       0       0       0       0       0
       0       0       0       0       0       0       0       0
       0       0       0       0       0       0       0       0
       0       0       0       0       0       0       0       0
       0       0       0       0       0       0       0       0
       0       0       0       0       0       0       0       0
       0       0       0       0       0       0       0       0
       0       0       0       0       0       0       0       0
       0       0       0       0       0       0       0       0
       0       0       0       0       0       0       0       0
       0       0       0       0       0       0       0       0
       0       0       0       0       0       0       0       0
       0       0       0       0       0       0       0       0
       0       0       0       0       0       0       0       0
       0       0       0       0       0       0       0       0
       0       0       0       0       0       0       0       0
       0       0       0       0       0       0       0       0
       0       0       0       0       0       0       0       0
       0       0       0       0       0       0       0       0
       0       0       0       0       0       0       0       0
       0       0       0       0       0       0       0       0
       0       0       0       0       0       0       0       0
       0       0       0       0       0       0       0       0
       0       0       0       0       0       0       0       0
       0       0       0       0       0       0       0       0
       0       0       0       0       0       0       0       0
       0       0       0       0       0       0       0       0
       0       0       0       0       0       0       0       0
       0       0       0       0       0       0       0       0
       0       0       0       0       0       0       0       0
       0       0       0       0       0       0       0       0
       0       0       0       0       0       0       0       0
       0       0       0       0       0       0       0       0
       0       0       0       0       0       0       0       0
       0       0       0       0       0       0       0       0
       0       0       0       0       0       0       0       0
       0       0       0       0       0       0       0       0
       0       0       0       0       0       0       0       0
       0       0       0       0       0       0       0       0
       0       0       0       0       0       0       0       0
       0       0       0       0       0       0       0       0
       0       0       0       0       0       0       0       0
       0       0       0       0       0       0       0       0
       0       0       0       0       0       0       0       0
       0       0       0       0       0       0       0       0
       0       0       0       0       0       0       0       0
       0       0       0       0       0       0       0       0
       0       0       0       0       0       0       0       0
       0       0       0       0       0       0       0       0
       0       0       0       0       0       0       0       0
       0       0       0       0       0       0       0       0
       0       0       0       0       0       0       0       0
       0       0       0       0       0       0       0       0
       0       0       0       0       0       0       0       0
       0       0       0       0       0       0       0       0
       0       0       0       0       0       0       0       0
       0       0       0       0       0       0       0       0
       0       0       0       0       0       0       0       0
       0       0       0       0       0       0       0       0
       0       0       0       0       0       0       0       0
       0       0       0       0       0       0       0       0
       0       0       0       0       0       0       0       0
       0       0       0       0       0       0       0       0
       0       0       0       0       0       0       0       0
       0       0       0       0       0       0       0       0
       0       0       0       0       0       0       0       0
       0       0       0       0       0       0       0       0
       0       0       0       0       0       0       0       0
       0       0       0       0       0       0       0       0
       0       0       0       0       0       0       0       0
       0       0       0       0       0       0       0       0
       0       0       0       0       0       0       0       0
       0       0       0       0       0       0       0       0
       0       0       0       0       0       0       0       0
       0       0       0       0       0       0       0       0
       0       0       0       0       0       0       0       0
       0       0       0       0       0       0       0       0
       0       0       0       0       0       0       0       0
       0       0       0       0       0       0       0       0
       0       0       0       0       0       0       0       0
       0       0       0       0       0       0       0       0
       0       0       0       0       0       0       0       0
       0       0       0       0       0       0       0       0
       0       0       0       0       0       0       0       0
       0       0       0       0       0       0       0       0
       0       0       0       0       0       0       0       0
       0       0       0       0       0       0       0       0
       0       0       0       0       0       0       0       0
       0       0       0       0       0       0       0       0
       0       0       0       0       0       0       0       0
       0       0       0       0       0       0       0       0
       0       0       0       0       0       0       0       0
       0       0       0       0       0       0       0       0
       0       0       0       0       0       0       0       0
       0       0       0       0       0       0       0       0
       0       0       0       0       0       0       0       0
       0       0       0       0       0       0       0       0
       0       0       0       0       0       0       0       0
       0       0       0       0       0       0       0       0
       0       0       0       0       0       0       0       0
       0       0       0       0       0       0       0       0
       0       0       0       0       0       0       0       0
       0       0       0       0       0       0       0       0
       0       0       0       0       0       0       0       0
       0       0       0       0       0       0       0       0
       0       0       0       0       0       0       0       0
       0       0       0       0       0       0       0       0
       0       0       0       0       0       0       0       0
       0       0       0       0       0       0       0       0
       0       0       0       0       0       0       0       0
       0       0       0       0       0       0       0       0
       0       0       0       0       0       0       0       0
       0       0       0       0       0       0       0       0
       0       0       0       0       0       0       0       0
       0       0       0       0       0       0       0       0
       0       0       0       0       0       0       0       0
       0       0       0       0       0       0       0       0
       0       0       0       0       0       0       0       0
       0       0       0       0       0       0       0       0
       0       0       0       0       0       0       0       0
       0       0       0       0       0       0       0       0
       0       0       0       0       0       0       0       0
       0       0       0       0       0       0       0       0
       0       0       0       0       0       0       0       0
       0       0       0       0       0       0       0       0
       0       0       0       0       0       0       0       0
       0       0       0       0       0       0       0       0
       0       0       0       0       0       0       0       0
       0       0       0       0       0       0       0       0
       0       0       0       0       0       0       0       0
       0       0       0       0       0       0       0       0
       0       0       0       0       0       0       0       0
       0       0       0       0       0       0       0       0
       0       0       0       0       0       0       0       0
       0       0       0       0       0       0       0       0
       0       0       0       0       0       0       0       0
       0       0       0       0       0       0       0       0
       0       0       0       0       0       0       0       0
       0       0       0       0       0       0       0       0
       0       0       0       0       0       0       0       0
       0       0       0       0       0       0       0       0
       0       0       0       0       0       0       0       0
       0       0       0       0       0       0       0       0
       0       0       0       0       0       0       0       0
       0       0       0       0       0       0       0       0
       0       0       0       0       0       0       0       0
       0       0       0       0       0       0       0       0
       0       0       0       0       0       0       0       0
       0       0       0       0       0       0       0       0
       0       0       0       0       0       0       0       0
       0       0       0       0       0       0       0       0
       0       0       0       0       0       0       0       0
       0       0       0       0       0       0       0       0
       0       0       0       0       0       0       0       0
       0       0       0       0       0       0       0       0
       0       0       0       0       0       0       0       0
       0       0       0       0       0       0       0       0
       0       0       0       0       0       0       0       0
       0       0       0       0       0       0       0       0
       0       0       0       0       0       0       0       0
       0       0       0       0       0       0       0       0
       0       0       0       0       0       0       0       0
       0       0       0       0       0       0       0       0
       0       0       0       0       0       0       0       0
       0       0       0       0       0       0       0       0
       0       0       0       0       0       0       0       0
       0       0       0       0       0       0       0       0
       0       0       0       0       0       0       0       0
       0       0       0       0       0       0       0       0
       0       0       0       0       0       0       0       0
       0       0       0       0       0       0       0       0
       0       0       0       0       0       0       0       0
       0       0       0       0       0       0       0       0
       0       0       0       0       0       0       0       0
       0       0       0       0       0       0       0       0
       0       0       0       0       0       0       0       0
       0       0       0       0       0       0       0       0
       0       0       0       0       0       0       0       0
       0       0       0       0       0       0       0       0
       0       0       0       0       0       0       0       0
       0       0       0       0       0       0       0       0
       0       0       0       0       0       0       0       0
       0       0       0       0       0       0       0       0
       0       0       0       0       0       0       0       0
       0       0       0       0       0       0       0       0
       0       0       0       0       0       0       0       0
       0       0       0       0       0       0       0       0
       0       0       0       0       0       0       0       0
       0       0       0       0       0       0       0       0
       0       0       0       0       0       0       0       0
       0       0       0       0       0       0       0       0
       0       0       0       0       0       0       0       0
       0       0       0       0       0       0       0       0
       0       0       0       0       0       0       0       0
       0       0       0       0       0       0       0       0
       0       0       0       0       0       0       0       0
       0       0       0       0       0       0       0       0
       0       0       0       0       0       0       0       0
       0       0       0       0       0       0       0       0
       0       0       0       0       0       0       0       0
       0       0       0       0       0       0       0       0
       0       0       0       0       0       0       0       0
       0       0       0       0       0       0       0       0
       0       0       0       0       0       0       0       0
       0       0       0       0       0       0       0       0
       0       0       0       0       0       0       0       0
       0       0       0       0       0       0       0       0
       0       0       0       0       0       0       0       0
       0       0       0       0       0       0       0       0
       0       0       0       0       0       0       0       0
       0       0       0       0       0       0       0       0
       0       0       0       0       0       0       0       0
       0       0       0       0       0       0       0       0
       0       0       0       0       0       0       0       0
       0       0       0       0       0       0       0       0
       0       0       0       0       0       0       0       0
       0       0       0       0       0       0       0       0
       0       0       0       0       0       0       0       0
       0       0       0       0       0       0       0       0
       0       0       0       0       0       0       0       0
       0       0       0       0       0       0       0       0
       0       0       0       0       0       0       0       0
       0       0       0       0       0       0       0       0
       0       0       0       0       0       0       0       0
       0       0       0       0       0       0       0       0
       0       0       0       0       0       0       0       0
       0       0       0       0       0       0       0       0
       0       0       0       0       0       0       0       0
       0       0       0       0       0       0       0       0
       0       0       0       0       0       0       0       0
       0       0       0       0       0       0       0       0
       0       0       0       0       0       0       0       0
       0       0       0       0       0       0       0       0
       0       0       0       0       0       0       0       0
       0       0       0       0       0       0       0       0
       0       0       0       0       0       0       0       0
       0       0       0       0       0       0       0       0
       0       0       0       0       0       0       0       0
       0       0       0       0       0       0       0       0
       0       0       0       0       0       0       0       0
       0       0       0       0       0       0       0       0
       0       0       0       0       0       0       0       0
       0       0       0       0       0       0       0       0
       0       0       0       0       0       0       0       0
       0       0       0       0       0       0       0       0
       0       0       0       0       0       0       0       0
       0       0       0       0       0       0       0       0
       0       0       0       0       0       0       0       0
       0       0       0       0       0       0       0       0
       0       0       0       0       0       0       0       0
       0       0       0       0       0       0       0       0
       0       0       0       0       0       0       0       0
       0       0       0       0       0       0       0       0
       0       0       0       0       0       0       0       0
       0       0       0       0       0       0       0       0
       0       0       0       0       0       0       0       0
       0       0       0       0       0       0       0       0
       0       0       0       0       0       0       0       0
       0       0       0       0       0       0       0       0
       0       0       0       0       0       0       0       0
       0       0       0       0       0       0       0       0
       0       0       0       0       0       0       0       0
       0       0       0       0       0       0       0       0
       0       0       0       0       0       0       0       0
       0       0       0       0       0       0       0       0
       0       0       0       0       0       0       0       0
       0       0       0       0       0       0       0       0
       0       0       0       0       0       0       0       0
       0       0       0       0       0       0       0       0
       0       0       0       0       0       0       0       0
       0       0       0       0       0       0       0       0
       0       0       0       0       0       0       0       0
       0       0       0       0       0       0       0       0
       0       0       0       0       0       0       0       0
       0       0       0       0       0       0       0       0
       0       0       0       0       0       0       0       0
       0       0       0       0       0       0       0       0
       0       0       0       0       0       0       0       0
       0       0       0       0       0       0       0       0
       0       0       0       0       0       0       0       0
       0       0       0       0       0       0       0       0
       0       0       0       0       0       0       0       0
       0       0       0       0       0       0       0       0
       0       0       0       0       0       0       0       0
       0       0       0       0       0       0       0       0
       0       0       0       0       0       0       0       0
       0       0       0       0       0       0       0       0
       0       0       0       0       0       0       0       0
       0       0       0       0       0       0       0       0
       0       0       0       0       0       0       0       0
       0       0       0       0       0       0       0       0
       0       0       0       0       0       0       0       0
       0       0       0       0       0       0       0       0
       0       0       0       0       0       0       0       0
       0       0       0       0       0       0       0       0
       0       0       0       0       0       0       0       0
       0       0       0       0       0       0       0       0
       0       0       0       0       0       0       0       0
       0       0       0       0       0       0       0       0
       0       0       0       0       0       0       0       0
       0       0       0       0       0       0       0       0
       0       0       0       0       0       0       0       0
       0       0       0       0       0       0       0       0
       0       0       0       0       0       0       0       0
       0       0       0       0       0       0       0       0
       0       0       0       0       0       0       0       0
       0       0       0       0       0       0       0       0
       0       0       0       0       0       0       0       0
       0       0       0       0       0       0       0       0
       0       0       0       0       0       0       0       0
       0       0       0       0       0       0       0       0
       0       0       0       0       0       0       0       0
       0       0       0       0       0       0       0       0
       0       0       0       0       0       0       0       0
       0       0       0       0       0       0       0       0
       0       0       0       0       0       0       0       0
       0       0       0       0       0       0       0       0
       0       0       0       0       0       0       0       0
       0       0       0       0       0       0       0       0
       0       0       0       0       0       0       0       0
       0       0       0       0       0       0       0       0
       0       0       0       0       0       0       0       0
       0       0       0       0       0       0       0       0
       0       0       0       0       0       0       0       0
       0       0       0       0       0       0       0       0
       0       0       0       0       0       0       0       0
       0       0       0       0       0       0       0       0
       0       0       0       0       0       0       0       0
       0       0       0       0       0       0       0       0
       0       0       0       0       0       0       0       0
       0       0       0       0       0       0       0       0
       0       0       0       0       0       0       0       0
       0       0       0       0       0       0       0       0
       0       0       0       0       0       0       0       0
       0       0       0       0       0       0       0       0
       0       0       0       0       0       0       0       0
       0       0       0       0       0       0       0       0
       0       0       0       0       0       0       0       0
       0       0       0       0       0       0       0       0
       0       0       0       0       0       0       0       0
       0       0       0       0       0       0       0       0
       0       0       0       0       0       0       0       0
       0       0       0       0       0       0       0       0
       0       0       0       0       0       0       0       0
       0       0       0       0       0       0       0       0
       0       0       0       0       0       0       0       0
       0       0       0       0       0       0       0       0
       0       0       0       0       0       0       0       0
       0       0       0       0       0       0       0       0
       0       0       0       0       0       0       0       0
       0       0       0       0       0       0       0       0
       0       0       0       0       0       0       0       0
       0       0       0       0       0       0       0       0
       0       0       0       0       0       0       0       0
       0       0       0       0       0       0       0       0
       0       0       0       0       0       0       0       0
       0       0       0       0       0       0       0       0
       0       0       0       0       0       0       0       0
       0       0       0       0       0       0       0       0
       0       0       0       0       0       0       0       0
       0       0       0       0       0       0       0       0
       0       0       0       0       0       0       0       0
       0       0       0       0       0       0       0       0
       0       0       0       0       0       0       0       0
       0       0       0       0       0       0       0       0
       0       0       0       0       0       0       0       0
       0       0       0       0       0       0       0       0
       0       0       0       0       0       0       0       0
       0       0       0       0       0       0       0       0
       0       0       0       0       0       0       0       0
       0       0       0       0       0       0       0       0
       0       0       0       0       0       0       0       0
       0       0       0       0       0       0       0       0
       0       0       0       0       0       0       0       0
       0       0       0       0       0       0       0       0
       0       0       0       0       0       0       0       0
       0       0       0       0       0       0       0       0
       0       0       0       0       0       0       0       0
       0       0       0       0       0       0       0       0
       0       0       0       0       0       0       0       0
       0       0       0       0       0       0       0       0
       0       0       0       0       0       0       0       0
       0       0       0       0       0       0       0       0
       0       0       0       0       0       0       0       0
       0       0       0       0       0       0       0       0
       0       0       0       0       0       0       0       0
       0       0       0       0       0       0       0       0
       0       0       0       0       0       0       0       0
       0       0       0       0       0       0       0       0
       0       0       0       0       0       0       0       0
       0       0       0       0       0       0       0       0
       0       0       0       0       0       0       0       0
       0       0       0       0       0       0       0       0
       0       0       0       0       0       0       0       0
       0       0       0       0       0       0       0       0
       0       0       0       0       0       0       0       0
       0       0       0       0       0       0       0       0
       0       0       0       0       0       0       0       0
       0       0       0       0       0       0       0       0
       0       0       0       0       0       0       0       0
       0       0       0       0       0       0       0       0
       0       0       0       0       0       0       0       0
       0       0       0       0       0       0       0       0
       0       0       0       0       0       0       0       0
       0       0       0       0       0       0       0       0
       0       0       0       0       0       0       0       0
       0       0       0       0       0       0       0       0
       0       0       0       0       0       0       0       0
       0       0       0       0       0       0       0       0
       0       0       0       0       0       0       0       0
       0       0       0       0       0       0       0       0
       0       0       0       0       0       0       0       0
       0       0       0       0       0       0       0       0
       0       0       0       0       0       0       0       0
       0       0       0       0       0       0       0       0
       0       0       0       0       0       0       0       0
       0       0       0       0       0       0       0       0
       0       0       0       0       0       0       0       0
       0       0       0       0       0       0       0       0
       0       0       0       0       0       0       0       0
       0       0       0       0       0       0       0       0
       0       0       0       0       0       0       0       0
       0       0       0       0       0       0       0       0
       0       0       0       0       0       0       0       0
       0       0       0       0       0       0       0       0
       0       0       0       0       0       0       0       0
       0       0       0       0       0       0       0       0
       0       0       0       0       0       0       0       0
       0       0       0       0       0       0       0       0
       0       0       0       0       0       0       0       0
       0       0       0       0       0       0       0       0
       0       0       0       0       0       0       0       0
       0       0       0       0       0       0       0       0
       0       0       0       0       0       0       0       0
       0       0       0       0       0       0       0       0
       0       0       0       0       0       0       0       0
       0       0       0       0       0       0       0       0
       0       0       0       0       0       0       0       0
       0       0       0       0       0       0       0       0
       0       0       0       0       0       0       0       0
       0       0       0       0       0       0       0       0
       0       0       0       0       0       0       0       0
       0       0       0       0       0       0       0       0
       0       0       0       0       0       0       0       0
       0       0       0       0       0       0       0       0
       0       0       0       0       0       0       0       0
       0       0       0       0       0       0       0       0
       0       0       0       0       0       0       0       0
       0       0       0       0       0       0       0       0
       0       0       0       0       0       0       0       0
       0       0       0       0       0       0       0       0
       0       0       0       0       0       0       0       0
       0       0       0       0       0       0       0       0
       0       0       0       0       0       0       0       0
       0       0       0       0       0       0       0       0
       0       0       0       0       0       0       0       0
       0       0       0       0       0       0       0       0
       0       0       0       0       0       0       0       0
       0       0       0       0       0       0       0       0
       0       0       0       0       0       0       0       0
       0       0       0       0       0       0       0       0
       0       0       0       0       0       0       0       0
       0       0       0       0       0       0       0       0
       0       0       0       0       0       0       0       0
       0       0       0       0       0       0       0       0
       0       0       0       0       0       0       0       0
       0       0       0       0       0       0       0       0
       0       0       0       0       0       0       0       0
       0       0       0       0       0       0       0       0
       0       0       0       0       0       0       0       0
       0       0       0       0       0       0       0       0
       0       0       0       0       0       0       0       0
       0       0       0       0       0       0       0       0
       0       0       0       0       0       0       0       0
       0       0       0       0       0       0       0       0
       0       0       0       0       0       0       0       0
       0       0       0       0       0       0       0       0
       0       0       0       0       0       0       0       0
       0       0       0       0       0       0       0       0
       0       0       0       0       0       0       0       0
       0       0       0       0       0       0       0       0
       0       0       0       0       0       0       0       0
       0       0       0       0       0       0       0       0
       0       0       0       0       0       0       0       0
       0       0       0       0       0       0       0       0
       0       0       0       0       0       0       0       0
       0       0       0       0       0       0       0       0
       0       0       0       0       0       0       0       0
       0       0       0       0       0       0       0       0
       0       0       0       0       0       0       0       0
       0       0       0       0       0       0       0       0
       0       0       0       0       0       0       0       0
       0       0       0       0       0       0       0       0
       0       0       0       0       0       0       0       0
       0       0       0       0       0       0       0       0
       0       0       0       0       0       0       0       0
       0       0       0       0       0       0       0       0
       0       0       0       0       0       0       0       0
       0       0       0       0       0       0       0       0
       0       0       0       0       0       0       0       0
       0       0       0       0       0       0       0       0
       0       0       0       0       0       0       0       0
       0       0       0       0       0       0       0       0
       0       0       0       0       0       0       0       0
       0       0       0       0       0       0       0       0
       0       0       0       0       0       0       0       0
       0       0       0       0       0       0       0       0
       0       0       0       0       0       0       0       0
       0       0       0       0       0       0       0       0
       0       0       0       0       0       0       0       0
       0       0       0       0       0       0       0       0
       0       0       0       0       0       0       0       0
       0       0       0       0       0       0       0       0
       0       0       0       0       0       0       0       0
       0       0       0       0       0       0       0       0
       0       0       0       0       0       0       0       0
       0       0       0       0       0       0       0       0
       0       0       0       0       0       0       0       0
       0       0       0       0       0       0       0       0
       0       0       0       0       0       0       0       0
       0       0       0       0       0       0       0       0
       0       0       0       0       0       0       0       0
       0       0       0       0       0       0       0       0
       0       0       0       0       0       0       0       0
       0       0       0       0       0       0       0       0
       0       0       0       0       0       0       0       0
       0       0       0       0       0       0       0       0
       0       0       0       0       0       0       0       0
       0       0       0       0       0       0       0       0
       0       0       0       0       0       0       0       0
       0       0       0       0       0       0       0       0
       0       0       0       0       0       0       0       0
       0       0       0       0       0       0       0       0
       0       0       0       0       0       0       0       0
       0       0       0       0       0       0       0       0
       0       0       0       0       0       0       0       0
       0       0       0       0       0       0       0       0
       0       0       0       0       0       0       0       0
       0       0       0       0       0       0       0       0
       0       0       0       0       0       0       0       0
       0       0       0       0       0       0       0       0
       0       0       0       0       0       0       0       0
       0       0       0       0       0       0       0       0
       0       0       0       0       0       0       0       0
       0       0       0       0       0       0       0       0
       0       0       0       0       0       0       0       0
       0       0       0       0       0       0       0       0
       0       0       0       0       0       0       0       0
       0       0       0       0       0       0       0       0
       0       0       0       0       0       0       0       0
       0       0       0       0       0       0       0       0
       0       0       0       0       0       0       0       0
       0       0       0       0       0       0       0       0
       0       0       0       0       0       0       0       0
       0       0       0       0       0       0       0       0
       0       0       0       0       0       0       0       0
       0       0       0       0       0       0       0       0
       0       0       0       0       0       0       0       0
       0       0       0       0       0       0       0       0
       0       0       0       0       0       0       0       0
       0       0       0       0       0       0       0       0
       0       0       0       0       0       0       0       0
       0       0       0       0       0       0       0       0
       0       0       0       0       0       0       0       0
       0       0       0       0       0       0       0       0
       0       0       0       0       0       0       0       0
       0       0       0       0       0       0       0       0
       0       0       0       0       0       0       0       0
       0       0       0       0       0       0       0       0
       0       0       0       0       0       0       0       0
       0       0       0       0       0       0       0       0
       0       0       0       0       0       0       0       0
       0       0       0       0       0       0       0       0
       0       0       0       0       0       0       0       0
       0       0       0       0       0       0       0       0
       0       0       0       0       0       0       0       0
       0       0       0       0       0       0       0       0
       0       0       0       0       0       0       0       0
       0       0       0       0       0       0       0       0
       0       0       0       0       0       0       0       0
       0       0       0       0       0       0       0       0
       0       0       0       0       0       0       0       0
       0       0       0       0       0       0       0       0
       0       0       0       0       0       0       0       0
       0       0       0       0       0       0       0       0
       0       0       0       0       0       0       0       0
       0       0       0       0       0       0       0       0
       0       0       0       0       0       0       0       0
       0       0       0       0       0       0       0       0
       0       0       0       0       0       0       0       0
       0       0       0       0       0       0       0       0
       0       0       0       0       0       0       0       0
       0       0       0       0       0       0       0       0
       0       0       0       0       0       0       0       0
       0       0       0       0       0       0       0       0
       0       0       0       0       0       0       0       0
       0       0       0       0       0       0       0       0
       0       0       0       0       0       0       0       0
       0       0       0       0       0       0       0       0
       0       0       0       0       0       0       0       0
       0       0       0       0       0       0       0       0
       0       0       0       0       0       0       0       0
       0       0       0       0       0       0       0       0
       0       0       0       0       0       0       0       0
       0       0       0       0       0       0       0       0
       0       0       0       0       0       0       0       0
       0       0       0       0       0       0       0       0
       0       0       0       0       0       0       0       0
       0       0       0       0       0       0       0       0
       0       0       0       0       0       0       0       0
       0       0       0       0       0       0       0       0
       0       0       0       0       0       0       0       0
       0       0       0       0       0       0       0       0
       0       0       0       0       0       0       0       0
       0       0       0       0       0       0       0       0
       0       0       0       0       0       0       0       0
       0       0       0       0       0       0       0       0
       0       0       0       0       0       0       0       0
       0       0       0       0       0       0       0       0
       0       0       0       0       0       0       0       0
       0       0       0       0       0       0       0       0
       0       0       0       0       0       0       0       0
       0       0       0       0       0       0       0       0
       0       0       0       0       0       0       0       0
       0       0       0       0       0       0       0       0
       0       0       0       0       0       0       0       0
       0       0       0       0       0       0       0       0
       0       0       0       0       0       0       0       0
       0       0       0       0       0       0       0       0
       0       0       0       0       0       0       0       0
       0       0       0       0       0       0       0       0
       0       0       0       0       0       0       0       0
       0       0       0       0       0       0       0       0
       0       0       0       0       0       0       0       0
       0       0       0       0       0       0       0       0
       0       0       0       0       0       0       0       0
       0       0       0       0       0       0       0       0
       0       0       0       0       0       0       0       0
       0       0       0       0       0       0       0       0
       0       0       0       0       0       0       0       0
       0       0       0       0       0       0       0       0
       0       0       0       0       0       0       0       0
       0       0       0       0       0       0       0       0
       0       0       0       0       0       0       0       0
       0       0       0       0       0       0       0       0
       0       0       0       0       0       0       0       0
       0       0       0       0       0       0       0       0
       0       0       0       0       0       0       0       0
       0       0       0       0       0       0       0       0
       0       0       0       0       0       0       0       0
       0       0       0       0       0       0       0       0
       0       0       0       0       0       0       0       0
       0       0       0       0       0       0       0       0
       0       0       0       0       0       0       0       0
       0       0       0       0       0       0       0       0
       0       0       0       0       0       0       0       0
       0       0       0       0       0       0       0       0
       0       0       0       0       0       0       0       0
       0       0       0       0       0       0       0       0
       0       0       0       0       0       0       0       0
       0       0       0       0       0       0       0       0
       0       0       0       0       0       0       0       0
       0       0       0       0       0       0       0       0
       0       0       0       0       0       0       0       0
       0       0       0       0       0       0       0       0
       0       0       0       0       0       0       0       0
       0       0       0       0       0       0       0       0
       0       0       0       0       0       0       0       0
       0       0       0       0       0       0       0       0
       0       0       0       0       0       0       0       0
       0       0       0       0       0       0       0       0
       0       0       0       0       0       0       0       0
       0       0       0       0       0       0       0       0
       0       0       0       0       0       0       0       0
       0       0       0       0       0       0       0       0
       0       0       0       0       0       0       0       0
       0       0       0       0       0       0       0       0
       0       0       0       0       0       0       0       0
       0       0       0       0       0       0       0       0
       0       0       0       0       0       0       0       0
       0       0       0       0       0       0       0       0
       0       0       0       0       0       0       0       0
       0       0       0       0       0       0       0       0
       0       0       0       0       0       0       0       0
       0       0       0       0       0       0       0       0
       0       0       0       0       0       0       0       0
       0       0       0       0       0       0       0       0
       0       0       0       0       0       0       0       0
       0       0       0       0       0       0       0       0
       0       0       0       0       0       0       0       0
       0       0       0       0       0       0       0       0
       0       0       0       0       0       0       0       0
       0       0       0       0       0       0       0       0
       0       0       0       0       0       0       0       0
       0       0       0       0       0       0       0       0
       0       0       0       0       0       0       0       0
       0       0       0       0       0       0       0       0
       0       0       0       0       0       0       0       0
       0       0       0       0       0       0       0       0
       0       0       0       0       0       0       0       0
       0       0       0       0       0       0       0       0
       0       0       0       0       0       0       0       0
       0       0       0       0       0       0       0       0
       0       0       0       0       0       0       0       0
       0       0       0       0       0       0       0       0
       0       0       0       0       0       0       0       0
       0       0       0       0       0       0       0       0
       0       0       0       0       0       0       0       0
       0       0       0       0       0       0       0       0
       0       0       0       0       0       0       0       0
       0       0       0       0       0       0       0       0
       0       0       0       0       0       0       0       0
       0       0       0       0       0       0       0       0
       0       0       0       0       0       0       0       0
       0       0       0       0       0       0       0       0
       0       0       0       0       0       0       0       0
       0       0       0       0       0       0       0       0
       0       0       0       0       0       0       0       0
       0       0       0       0       0       0       0       0
       0       0       0       0       0       0       0       0
       0       0       0       0       0       0       0       0
       0       0       0       0       0       0       0       0
       0       0       0       0       0       0       0       0
       0       0       0       0       0       0       0       0
       0       0       0       0       0       0       0       0
       0       0       0       0       0       0       0       0
       0       0       0       0       0       0       0       0
       0       0       0       0       0       0       0       0
       0       0       0       0       0       0       0       0
       0       0       0       0       0       0       0       0
       0       0       0       0       0       0       0       0
       0       0       0       0       0       0       0       0
       0       0       0       0       0       0       0       0
       0       0       0       0       0       0       0       0
       0       0       0       0       0       0       0       0
       0       0       0       0       0       0       0       0
       0       0       0       0       0       0       0       0
       0       0       0       0       0       0       0       0
       0       0       0       0       0       0       0       0
       0       0       0       0       0       0       0       0
       0       0       0       0       0       0       0       0
       0       0       0       0       0       0       0       0
       0       0       0       0       0       0       0       0
       0       0       0       0       0       0       0       0
       0       0       0       0       0       0       0       0
       0       0       0       0       0       0       0       0
       0       0       0       0       0       0       0       0
       0       0       0       0       0       0       0       0
       0       0       0       0       0       0       0       0
       0       0       0       0       0       0       0       0
       0       0       0       0       0       0       0       0
       0       0       0       0       0       0       0       0
       0       0       0       0       0       0       0       0
       0       0       0       0       0       0       0       0
       0       0       0       0       0       0       0       0
       0       0       0       0       0       0       0       0
       0       0       0       0       0       0       0       0
       0       0       0       0       0       0       0       0
       0       0       0       0       0       0       0       0
       0       0       0       0       0       0       0       0
       0       0       0       0       0       0       0       0
       0       0       0       0       0       0       0       0
       0       0       0       0       0       0       0       0
       0       0       0       0       0       0       0       0
       0       0       0       0       0       0       0       0
       0       0       0       0       0       0       0       0
       0       0       0       0       0       0       0       0
       0       0       0       0       0       0       0       0
       0       0       0       0       0       0       0       0
       0       0       0       0       0       0       0       0
       0       0       0       0       0       0       0       0
       0       0       0       0       0       0       0       0
       0       0       0       0       0       0       0       0
       0       0       0       0       0       0       0       0
       0       0       0       0       0       0       0       0
       0       0       0       0       0       0       0       0
       0       0       0       0       0       0       0       0
       0       0       0       0       0       0       0       0
       0       0       0       0       0       0       0       0
       0       0       0       0       0       0       0       0
       0       0       0       0       0       0       0       0
       0       0       0       0       0       0       0       0
       0       0       0       0       0       0       0       0
       0       0       0       0       0       0       0       0
       0       0       0       0       0       0       0       0
       0       0       0       0       0       0       0       0
       0       0       0       0       0       0       0       0
       0       0       0       0       0       0       0       0
       0       0       0       0       0       0       0       0
       0       0       0       0       0       0       0       0
       0       0       0       0       0       0       0       0
       0       0       0       0       0       0       0       0
       0       0       0       0       0       0       0       0
       0       0       0       0       0       0       0       0
       0       0       0       0       0       0       0       0
       0       0       0       0       0       0       0       0
       0       0       0       0       0       0       0       0
       0       0       0       0       0       0       0       0
       0       0       0       0       0       0       0       0
       0       0       0       0       0       0       0       0
       0       0       0       0       0       0       0       0
       0       0       0       0       0       0       0       0
       0       0       0       0       0       0       0       0
       0       0       0       0       0       0       0       0
       0       0       0       0       0       0       0       0
       0       0       0       0       0       0       0       0
       0       0       0       0       0       0       0       0
       0       0       0       0       0       0       0       0
       0       0       0       0       0       0       0       0
       0       0       0       0       0       0       0       0
       0       0       0       0       0       0       0       0
       0       0       0       0       0       0       0       0
       0       0       0       0       0       0       0       0
       0       0       0       0       0       0       0       0
       0       0       0       0       0       0       0       0
       0       0       0       0       0       0       0       0
       0       0       0       0       0       0       0       0
       0       0       0       0       0       0       0       0
       0       0       0       0       0       0       0       0
       0       0       0       0       0       0       0       0
       0       0       0       0       0       0       0       0
       0       0       0       0       0       0       0       0
       0       0       0       0       0       0       0       0
       0       0       0       0       0       0       0       0
       0       0       0       0       0       0       0       0
       0       0       0       0       0       0       0       0
       0       0       0       0       0       0       0       0
       0       0       0       0       0       0       0       0
       0       0       0       0       0       0       0       0
       0       0       0       0       0       0       0       0
       0       0       0       0       0       0       0       0
       0       0       0       0       0       0       0       0
       0       0       0       0       0       0       0       0
       0       0       0       0       0       0       0       0
       0       0       0       0       0       0       0       0
       0       0       0       0       0       0       0       0
       0       0       0       0       0       0       0       0
       0       0       0       0       0       0       0       0
       0       0       0       0       0       0       0       0
       0       0       0       0       0       0       0       0
       0       0       0       0       0       0       0       0
       0       0       0       0       0       0       0       0
       0       0       0       0       0       0       0       0
       0       0       0       0       0       0       0       0
       0       0       0       0       0       0       0       0
       0       0       0       0       0       0       0       0
       0       0       0       0       0       0       0       0
       0       0       0       0       0       0       0       0
       0       0       0       0       0       0       0       0
       0       0       0       0       0       0       0       0
       0       0       0       0       0       0       0       0
       0       0       0       0       0       0       0       0
       0       0       0       0       0       0       0       0
       0       0       0       0       0       0       0       0
       0       0       0       0       0       0       0       0
       0       0       0       0       0       0       0       0
       0       0       0       0       0       0       0       0
       0       0       0       0       0       0       0       0
       0       0       0       0       0       0       0       0
       0       0       0       0       0       0       0       0
       0       0       0       0       0       0       0       0
       0       0       0       0       0       0       0       0
       0       0       0       0       0       0       0       0
       0       0       0       0       0       0       0       0
       0       0       0       0       0       0       0       0
       0       0       0       0       0       0       0       0
       0       0       0       0       0       0       0       0
       0       0       0       0       0       0       0       0
       0       0       0       0       0       0       0       0
       0       0       0       0       0       0       0       0
       0       0       0       0       0       0       0       0
       0       0       0       0       0       0       0       0
       0       0       0       0       0       0       0       0
       0       0       0       0       0       0       0       0
       0       0       0       0       0       0       0       0
       0       0       0       0       0       0       0       0
       0       0       0       0       0       0       0       0
       0       0       0       0       0       0       0       0
       0       0       0       0       0       0       0       0
       0       0       0       0       0       0       0       0
       0       0       0       0       0       0       0       0
       0       0       0       0       0       0       0       0
       0       0       0       0       0       0       0       0
       0       0       0       0       0       0       0       0
       0       0       0       0       0       0       0       0
       0       0       0       0       0       0       0       0
       0       0       0       0       0       0       0       0
       0       0       0       0       0       0       0       0
       0       0       0       0       0       0       0       0
       0       0       0       0       0       0       0       0
       0       0       0       0       0       0       0       0
       0       0       0       0       0       0       0       0
       0       0       0       0       0       0       0       0
       0       0       0       0       0       0       0       0
       0       0       0       0       0       0       0       0
       0       0       0       0       0       0       0       0
       0       0       0       0       0       0       0       0
       0       0       0       0       0       0       0       0
       0       0       0       0       0       0       0       0
       0       0       0       0       0       0       0       0
       0       0       0       0       0       0       0       0
       0       0       0       0       0       0       0       0
       0       0       0       0       0       0       0       0
       0       0       0       0       0       0       0       0
       0       0       0       0       0       0       0       0
       0       0       0       0       0       0       0       0
       0       0       0       0       0       0       0       0
       0       0       0       0       0       0       0       0
       0       0       0       0       0       0       0       0
       0       0       0       0       0       0       0       0
       0       0       0       0       0       0       0       0
       0       0       0       0       0       0       0       0
       0       0       0       0       0       0       0       0
       0       0       0       0       0       0       0       0
       0       0       0       0       0       0       0       0
       0       0       0       0       0       0       0       0
       0       0       0       0       0       0       0       0
       0       0       0       0       0       0       0       0
       0       0       0       0       0       0       0       0
       0       0       0       0       0       0       0       0
       0       0       0       0       0       0       0       0
       0       0       0       0       0       0       0       0
       0       0       0       0       0       0       0       0
       0       0       0       0       0       0       0       0
       0       0       0       0       0       0       0       0
       0       0       0       0       0       0       0       0
       0       0       0       0       0       0       0       0
       0       0       0       0       0       0       0       0
       0       0       0       0       0       0       0       0
       0       0       0       0       0       0       0       0
       0       0       0       0       0       0       0       0
       0       0       0       0       0       0       0       0
       0       0       0       0       0       0       0       0
       0       0       0       0       0       0       0       0
       0       0       0       0       0       0       0       0
       0       0       0       0       0       0       0       0
       0       0       0       0       0       0       0       0
       0       0       0       0       0       0       0       0
       0       0       0       0       0       0       0       0
       0       0       0       0       0       0       0       0
       0       0       0       0       0       0       0       0
       0       0       0       0       0       0       0       0
       0       0       0       0       0       0       0       0
       0       0       0       0       0       0       0       0
       0       0       0       0       0       0       0       0
       0       0       0       0       0       0       0       0
       0       0       0       0       0       0       0       0
       0       0       0       0       0       0       0       0
       0       0       0       0       0       0       0       0
       0       0       0       0       0       0       0       0
       0       0       0       0       0       0       0       0
       0       0       0       0       0       0       0       0
       0       0       0       0       0       0       0       0
       0       0       0       0       0       0       0       0
       0       0       0       0       0       0       0       0
       0       0       0       0       0       0       0       0
       0       0       0       0       0       0       0       0
       0       0       0       0       0       0       0       0
       0       0       0       0       0       0       0       0
       0       0       0       0       0       0       0       0
       0       0       0       0       0       0       0       0
       0       0       0       0       0       0       0       0
       0       0       0       0       0       0       0       0
       0       0       0       0       0       0       0       0
       0       0       0       0       0       0       0       0
       0       0       0       0       0       0       0       0
       0       0       0       0       0       0       0       0
       0       0       0       0       0       0       0       0
       0       0       0       0       0       0       0       0
       0       0       0       0       0       0       0       0
       0       0       0       0       0       0       0       0
       0       0       0       0       0       0       0       0
       0       0       0       0       0       0       0       0
       0       0       0       0       0       0       0       0
       0       0       0       0       0       0       0       0
       0       0       0       0       0       0       0       0
       0       0       0       0       0       0       0       0
       0       0       0       0       0       0       0       0
       0       0       0       0       0       0       0       0
       0       0       0       0       0       0       0       0
       0       0       0       0       0       0       0       0
       0       0       0       0       0       0       0       0
       0       0       0       0       0       0       0       0
       0       0       0       0       0       0       0       0
       0       0       0       0       0       0       0       0
       0       0       0       0       0       0       0       0
       0       0       0       0       0       0       0       0
       0       0       0       0       0       0       0       0
       0       0       0       0       0       0       0       0
       0       0       0       0       0       0       0       0
       0       0       0       0       0       0       0       0
       0       0       0       0       0       0       0       0
       0       0       0       0       0       0       0       0
       0       0       0       0       0       0       0       0
       0       0       0       0       0       0       0       0
       0       0       0       0       0       0       0       0
       0       0       0       0       0       0       0       0
       0       0       0       0       0       0       0       0
       0       0       0       0       0       0       0       0
       0       0       0       0       0       0       0       0
       0       0       0       0       0       0       0       0
       0       0       0       0       0       0       0       0
       0       0       0       0       0       0       0       0
       0       0       0       0       0       0       0       0
       0       0       0       0       0       0       0       0
       0       0       0       0       0       0       0       0
       0       0       0       0       0       0       0       0
       0       0       0       0       0       0       0       0
       0       0       0       0       0       0       0       0
       0       0       0       0       0       0       0       0
       0       0       0       0       0       0       0       0
       0       0       0       0       0       0       0       0
       0       0       0       0       0       0       0       0
       0       0       0       0       0       0       0       0
       0       0       0       0       0       0       0       0
       0       0       0       0       0       0       0       0
       0       0       0       0       0       0       0       0
       0       0       0       0       0       0       0       0
       0       0       0       0       0       0       0       0
       0       0       0       0       0       0       0       0
       0       0       0       0       0       0       0       0
       0       0       0       0       0       0       0       0
       0       0       0       0       0       0       0       0
       0       0       0       0       0       0       0       0
       0       0       0       0       0       0       0       0
       0       0       0       0       0       0       0       0
       0       0       0       0       0       0       0       0
       0       0       0       0       0       0       0       0
       0       0       0       0       0       0       0       0
       0       0       0       0       0       0       0       0
       0       0       0       0       0       0       0       0
       0       0       0       0       0       0       0       0
       0       0       0       0       0       0       0       0
       0       0       0       0       0       0       0       0
       0       0       0       0       0       0       0       0
       0       0       0       0       0       0       0       0
       0       0       0       0       0       0       0       0
       0       0       0       0       0       0       0       0
       0       0       0       0       0       0       0       0
       0       0       0       0       0       0       0       0
       0       0       0       0       0       0       0       0
       0       0       0       0       0       0       0       0
       0       0       0       0       0       0       0       0
       0       0       0       0       0       0       0       0
       0       0       0       0       0       0       0       0
       0       0       0       0       0       0       0       0
       0       0       0       0       0       0       0       0
       0       0       0       0       0       0       0       0
       0       0       0       0       0       0       0       0
       0       0       0       0       0       0       0       0
       0       0       0       0       0       0       0       0
       0       0       0       0       0       0       0       0
       0       0       0       0       0       0       0       0
       0       0       0       0       0       0       0       0
       0       0       0       0       0       0       0       0
       0       0       0       0       0       0       0       0
       0       0       0       0       0       0       0       0
       0       0       0       0       0       0       0       0
       0       0       0       0       0       0       0       0
       0       0       0       0       0       0       0       0
       0       0       0       0       0       0       0       0
       0       0       0       0       0       0       0       0
       0       0       0       0       0       0       0       0
       0       0       0       0       0       0       0       0
       0       0       0       0       0       0       0       0
       0       0       0       0       0       0       0       0
       0       0       0       0       0       0       0       0
       0       0       0       0       0       0       0       0
       0       0       0       0       0       0       0       0
       0       0       0       0       0       0       0       0
       0       0       0       0       0       0       0       0
       0       0       0       0       0       0       0       0
       0       0       0       0       0       0       0       0
       0       0       0       0       0       0       0       0
       0       0       0       0       0       0       0       0
       0       0       0       0       0       0       0       0
       0       0       0       0       0       0       0       0
       0       0       0       0       0       0       0       0
       0       0       0       0       0       0       0       0
       0       0       0       0       0       0       0       0
       0       0       0       0       0       0       0       0
       0       0       0       0       0       0       0       0
       0       0       0       0       0       0       0       0
       0       0       0       0       0       0       0       0
       0       0       0       0       0       0       0       0
       0       0       0       0       0       0       0       0
       0       0       0       0       0       0       0       0
       0       0       0       0       0       0       0       0
       0       0       0       0       0       0       0       0
       0       0       0       0       0       0       0       0
       0       0       0       0       0       0       0       0
       0       0       0       0       0       0       0       0
       0       0       0       0       0       0       0       0
       0       0       0       0       0       0       0       0
       0       0       0       0       0       0       0       0
       0       0       0       0       0       0       0       0
       0       0       0       0       0       0       0       0
       0       0       0       0       0       0       0       0
       0       0       0       0       0       0       0       0
       0       0       0       0       0       0       0       0
       0       0       0       0       0       0       0       0
       0       0       0       0       0       0       0       0
       0       0       0       0       0       0       0       0
       0       0       0       0       0       0       0       0
       0       0       0       0       0       0       0       0
       0       0       0       0       0       0       0       0
       0       0       0       0       0       0       0       0
       0       0       0       0       0       0       0       0
       0       0       0       0       0       0       0       0
       0       0       0       0       0       0       0       0
       0       0       0       0       0       0       0       0
       0       0       0       0       0       0       0       0
       0       0       0       0       0       0       0       0
       0       0       0       0       0       0       0       0
       0       0       0       0       0       0       0       0
       0       0       0       0       0       0       0       0
       0       0       0       0       0       0       0       0
       0       0       0       0       0       0       0       0
       0       0       0       0       0       0       0       0
       0       0       0       0       0       0       0       0
       0       0       0       0       0       0       0       0
       0       0       0       0       0       0       0       0
       0       0       0       0       0       0       0       0
       0       0       0       0       0       0       0       0
       0       0       0       0       0       0       0       0
       0       0       0       0       0       0       0       0
       0       0       0       0       0       0       0       0
       0       0       0       0       0       0       0       0
       0       0       0       0       0       0       0       0
       0       0       0       0       0       0       0       0
       0       0       0       0       0       0       0       0
       0       0       0       0       0       0       0       0
       0       0       0       0       0       0       0       0
       0       0       0       0       0       0       0       0
       0       0       0       0       0       0       0       0
       0       0       0       0       0       0       0       0
       0       0       0       0       0       0       0       0
       0       0       0       0       0       0       0       0
       0       0       0       0       0       0       0       0
       0       0       0       0       0       0       0       0
       0       0       0       0       0       0       0       0
       0       0       0       0       0       0       0       0
       0       0       0       0       0       0       0       0
       0       0       0       0       0       0       0       0
       0       0       0       0       0       0       0       0
       0       0       0       0       0       0       0       0
       0       0       0       0       0       0       0       0
       0       0       0       0       0       0       0       0
       0       0       0       0       0       0       0       0
       0       0       0       0       0       0       0       0
       0       0       0       0       0       0       0       0
       0       0       0       0       0       0       0       0
       0       0       0       0       0       0       0       0
       0       0       0       0       0       0       0       0
       0       0       0       0       0       0       0       0
       0       0       0       0       0       0       0       0
       0       0       0       0       0       0       0       0
       0       0       0       0       0       0       0       0
       0       0       0       0       0       0       0       0
       0       0       0       0       0       0       0       0
       0       0       0       0       0       0       0       0
       0       0       0       0       0       0       0       0
       0       0       0       0       0       0       0       0
       0       0       0       0       0       0       0       0
       0       0       0       0       0       0       0       0
       0       0       0       0       0       0       0       0
       0       0       0       0       0       0       0       0
       0       0       0       0       0       0       0       0
       0       0       0       0       0       0       0       0
       0       0       0       0       0       0       0       0
       0       0       0       0       0       0       0       0
       0       0       0       0       0       0       0       0
       0       0       0       0       0       0       0       0
       0       0       0       0       0       0       0       0
       0       0       0       0       0       0       0       0
       0       0       0       0       0       0       0       0
       0       0       0       0       0       0       0       0
       0       0       0       0       0       0       0       0
       0       0       0       0       0       0       0       0
       0       0       0       0       0       0       0       0
       0       0       0       0       0       0       0       0
       0       0       0       0       0       0       0       0
       0       0       0       0       0       0       0       0
       0       0       0       0       0       0       0       0
       0       0       0       0       0       0       0       0
       0       0       0       0       0       0       0       0
       0       0       0       0       0       0       0       0
       0       0       0       0       0       0       0       0
       0       0       0       0       0       0       0       0
       0       0       0       0       0       0       0       0
       0       0       0       0       0       0       0       0
       0       0       0       0       0       0       0       0
       0       0       0       0       0       0       0       0
       0       0       0       0       0       0       0       0
       0       0       0       0       0       0       0       0
       0       0       0       0       0       0       0       0
       0       0       0       0       0       0       0       0
       0       0       0       0       0       0       0       0
       0       0       0       0       0       0       0       0
       0       0       0       0       0       0       0       0
       0       0       0       0       0       0       0       0
       0       0       0       0       0       0       0       0
       0       0       0       0       0       0       0       0
       0       0       0       0       0       0       0       0
       0       0       0       0       0       0       0       0
       0       0       0       0       0       0       0       0
       0       0       0       0       0       0       0       0
       0       0       0       0       0       0       0       0
       0       0       0       0       0       0       0       0
       0       0       0       0       0       0       0       0
       0       0       0       0       0       0       0       0
       0       0       0       0       0       0       0       0
       0       0       0       0       0       0       0       0
       0       0       0       0       0       0       0       0
       0       0       0       0       0       0       0       0
       0       0       0       0       0       0       0       0
       0       0       0       0       0       0       0       0
       0       0       0       0       0       0       0       0
       0       0       0       0       0       0       0       0
       0       0       0       0       0       0       0       0
       0       0       0       0       0       0       0       0
       0       0       0       0       0       0       0       0
       0       0       0       0       0       0       0       0
       0       0       0       0       0       0       0       0
       0       0       0       0       0       0       0       0
       0       0       0       0       0       0       0       0
       0       0       0       0       0       0       0       0
       0       0       0       0       0       0       0       0
       0       0       0       0       0       0       0       0
       0       0       0       0       0       0       0       0
       0       0       0       0       0       0       0       0
       0       0       0       0       0       0       0       0
       0       0       0       0       0       0       0       0
       0       0       0       0       0       0       0       0
       0       0       0       0       0       0       0       0
       0       0       0       0       0       0       0       0
       0       0       0       0       0       0       0       0
       0       0       0       0       0       0       0       0
       0       0       0       0       0       0       0       0
       0       0       0       0       0       0       0       0
       0       0       0       0       0       0       0       0
       0       0       0       0       0       0       0       0
       0       0       0       0       0       0       0       0
       0       0       0       0       0       0       0       0
       0       0       0       0       0       0       0       0
       0       0       0       0       0       0       0       0
       0       0       0       0       0       0       0       0
       0       0       0       0       0       0       0       0
       0       0       0       0       0       0       0       0
       0       0       0       0       0       0       0       0
       0       0       0       0       0       0       0       0
       0       0       0       0       0       0       0       0
       0       0       0       0       0       0       0       0
       0       0       0       0       0       0       0       0
       0       0       0       0       0       0       0       0
       0       0       0       0       0       0       0       0
       0       0       0       0       0       0       0       0
       0       0       0       0       0       0       0       0
       0       0       0       0       0       0       0       0
       0       0       0       0       0       0       0       0
       0       0       0       0       0       0       0       0
       0       0       0       0       0       0       0       0
       0       0       0       0       0       0       0       0
       0       0       0       0       0       0       0       0
       0       0       0       0       0       0       0       0
       0       0       0       0       0       0       0       0
       0       0       0       0       0       0       0       0
       0       0       0       0       0       0       0       0
       0       0       0       0       0       0       0       0
       0       0       0       0       0       0       0       0
       0       0       0       0       0       0       0       0
       0       0       0       0       0       0       0       0
       0       0       0       0       0       0       0       0
       0       0       0       0       0       0       0       0
       0       0       0       0       0       0       0       0
       0       0       0       0       0       0       0       0
       0       0       0       0       0       0       0       0
       0       0       0       0       0       0       0       0
       0       0       0       0       0       0       0       0
       0       0       0       0       0       0       0       0
       0       0       0       0       0       0       0       0
       0       0       0       0       0       0       0       0
       0       0       0       0       0       0       0       0
       0       0       0       0       0       0       0       0
       0       0       0       0       0       0       0       0
       0       0       0       0       0       0       0       0
       0       0       0       0       0       0       0       0
       0       0       0       0       0       0       0       0
       0       0       0       0       0       0       0       0
       0       0       0       0       0       0       0       0
       0       0       0       0       0       0       0       0
       0       0       0       0       0       0       0       0
       0       0       0       0       0       0       0       0
       0       0       0       0       0       0       0       0
       0       0       0       0       0       0       0       0
       0       0       0       0       0       0       0       0
       0       0       0       0       0       0       0       0
       0       0       0       0       0       0       0       0
       0       0       0       0       0       0       0       0
       0       0       0       0       0       0       0       0
       0       0       0       0       0       0       0       0
       0       0       0       0       0       0       0       0
       0       0       0       0       0       0       0       0
       0       0       0       0       0       0       0       0
       0       0       0       0       0       0       0       0
       0       0       0       0       0       0       0       0
       0       0       0       0       0       0       0       0
       0       0       0       0       0       0       0       0
       0       0       0       0       0       0       0       0
       0       0       0       0       0       0       0       0
       0       0       0       0       0       0       0       0
       0       0       0       0       0       0       0       0
       0       0       0       0       0       0       0       0
       0       0       0       0       0       0       0       0
       0       0       0       0       0       0       0       0
       0       0       0       0       0       0       0       0
       0       0       0       0       0       0       0       0
       0       0       0       0       0       0       0       0
       0       0       0       0       0       0       0       0
       0       0       0       0       0       0       0       0
       0       0       0       0       0       0       0       0
       0       0       0       0       0       0       0       0
       0       0       0       0       0       0       0       0
       0       0       0       0       0       0       0       0
       0       0       0       0       0       0       0       0
       0       0       0       0       0       0       0       0
       0       0       0       0       0       0       0       0
       0       0       0       0       0       0       0       0
       0       0       0       0       0       0       0       0
       0       0       0       0       0       0       0       0
       0       0       0       0       0       0       0       0
       0       0       0       0       0       0       0       0
       0       0       0       0       0       0       0       0
       0       0       0       0       0       0       0       0
       0       0       0       0       0       0       0       0
       0       0       0       0       0       0       0       0
       0       0       0       0       0       0       0       0
       0       0       0       0       0       0       0       0
       0       0       0       0       0       0       0       0
       0       0       0       0       0       0       0       0
       0       0       0       0       0       0       0       0
       0       0       0       0       0       0       0       0
       0       0       0       0       0       0       0       0
       0       0       0       0       0       0       0       0
       0       0       0       0       0       0       0       0
       0       0       0       0       0       0       0       0
       0       0       0       0       0       0       0       0
       0       0       0       0       0       0       0       0
       0       0       0       0       0       0       0       0
       0       0       0       0       0       0       0       0
       0       0       0       0       0       0       0       0
       0       0       0       0       0       0       0       0
       0       0       0       0       0       0       0       0
       0       0       0       0       0       0       0       0
       0       0       0       0       0       0       0       0
       0       0       0       0       0       0       0       0
       0       0       0       0       0       0       0       0
       0       0       0       0       0       0       0       0
       0       0       0       0       0       0       0       0
       0       0       0       0       0       0       0       0
       0       0       0       0       0       0       0       0
       0       0       0       0       0       0       0       0
       0       0       0       0       0       0       0       0
       0       0       0       0       0       0       0       0
       0       0       0       0       0       0       0       0
       0       0       0       0       0       0       0       0
       0       0       0       0       0       0       0       0
       0       0       0       0       0       0       0       0
       0       0       0       0       0       0       0       0
       0       0       0       0       0       0       0       0
       0       0       0       0       0       0       0       0
       0       0       0       0       0       0       0       0
       0       0       0       0       0       0       0       0
       0       0       0       0       0       0       0       0
       0       0       0       0       0       0       0       0
       0       0       0       0       0       0       0       0
       0       0       0       0       0       0       0       0
       0       0       0       0       0       0       0       0
       0       0       0       0       0       0       0       0
       0       0       0       0       0       0       0       0
       0       0       0       0       0       0       0       0
       0       0       0       0       0       0       0       0
       0       0       0       0       0       0       0       0
       0       0       0       0       0       0       0       0
       0       0       0       0       0       0       0       0
       0       0       0       0       0       0       0       0
       0       0       0       0       0       0       0       0
       0       0       0       0       0       0       0       0
       0       0       0       0       0       0       0       0
       0       0       0       0       0       0       0       0
       0       0       0       0       0       0       0       0
       0       0       0       0       0       0       0       0
       0       0       0       0       0       0       0       0
       0       0       0       0       0       0       0       0
       0       0       0       0       0       0       0       0
       0       0       0       0       0       0       0       0
       0       0       0       0       0       0       0       0
       0       0       0       0       0       0       0       0
       0       0       0       0       0       0       0       0
       0       0       0       0       0       0       0       0
       0       0       0       0       0       0       0       0
       0       0       0       0       0       0       0       0
       0       0       0       0       0       0       0       0
       0       0       0       0       0       0       0       0
       0       0       0       0       0       0       0       0
       0       0       0       0       0       0       0       0
       0       0       0       0       0       0       0       0
       0       0       0       0       0       0       0       0
       0       0       0       0       0       0       0       0
       0       0       0       0       0       0       0       0
       0       0       0       0       0       0       0       0
       0       0       0       0       0       0       0       0
       0       0       0       0       0       0       0       0
       0       0       0       0       0       0       0       0
       0       0       0       0       0       0       0       0
       0       0       0       0       0       0       0       0
       0       0       0       0       0       0       0       0
       0       0       0       0       0       0       0       0
       0       0       0       0       0       0       0       0
       0       0       0       0       0       0       0       0
       0       0       0       0       0       0       0       0
       0       0       0       0       0       0       0       0
       0       0       0       0       0       0       0       0
       0       0       0       0       0       0       0       0
       0       0       0       0       0       0       0       0
       0       0       0       0       0       0       0       0
       0       0       0       0       0       0       0       0
       0       0       0       0       0       0       0       0
       0       0       0       0       0       0       0       0
       0       0       0       0       0       0       0       0
       0       0       0       0       0       0       0       0
       0       0       0       0       0       0       0       0
       0       0       0       0       0       0       0       0
       0       0       0       0       0       0       0       0
       0       0       0       0       0       0       0       0
       0       0       0       0       0       0       0       0
       0       0       0       0       0       0       0       0
       0       0       0       0       0       0       0       0
       0       0       0       0       0       0       0       0
       0       0       0       0       0       0       0       0
       0       0       0       0       0       0       0       0
       0       0       0       0       0       0       0       0
       0       0       0       0       0       0       0       0
       0       0       0       0       0       0       0       0
       0       0       0       0       0       0       0       0
       0       0       0       0       0       0       0       0
       0       0       0       0       0       0       0       0
       0       0       0       0       0       0       0       0
       0       0       0       0       0       0       0       0
       0       0       0       0       0       0       0       0
       0       0       0       0       0       0       0       0
       0       0       0       0       0       0       0       0
       0       0       0       0       0       0       0       0
       0       0       0       0       0       0       0       0
       0       0       0       0       0       0       0       0
       0       0       0       0       0       0       0       0
       0       0       0       0       0       0       0       0
       0       0       0       0       0       0       0       0
       0       0       0       0       0       0       0       0
       0       0       0       0       0       0       0       0
       0       0       0       0       0       0       0       0
       0       0       0       0       0       0       0       0
       0       0       0       0       0       0       0       0
       0       0       0       0       0       0       0       0
       0       0       0       0       0       0       0       0
       0       0       0       0       0       0       0       0
       0       0       0       0       0       0       0       0
       0       0       0       0       0       0       0       0
       0       0       0       0       0       0       0       0
       0       0       0       0       0       0       0       0
       0       0       0       0       0       0       0       0
       0       0       0       0       0       0       0       0
       0       0       0       0       0       0       0       0
       0       0       0       0       0       0       0       0
       0       0       0       0       0       0       0       0
       0       0       0       0       0       0       0       0
       0       0       0       0       0       0       0       0
       0       0       0       0       0       0       0       0
       0       0       0       0       0       0       0       0
       0       0       0       0       0       0       0       0
       0       0       0       0       0       0       0       0
       0       0       0       0       0       0       0       0
       0       0       0       0       0       0       0       0
       0       0       0       0       0       0       0       0
       0       0       0       0       0       0       0       0
       0       0       0       0       0       0       0       0
       0       0       0       0       0       0       0       0
       0       0       0       0       0       0       0       0
       0       0       0       0       0       0       0       0
       0       0       0       0       0       0       0       0
       0       0       0       0       0       0       0       0
       0       0       0       0       0       0       0       0
       0       0       0       0       0       0       0       0
       0       0       0       0       0       0       0       0
       0       0       0       0       0       0       0       0
       0       0       0       0       0       0       0       0
       0       0       0       0       0       0       0       0
       0       0       0       0       0       0       0       0
       0       0       0       0       0       0       0       0
       0       0       0       0       0       0       0       0
       0       0       0       0       0       0       0       0
       0       0       0       0       0       0       0       0
       0       0       0       0       0       0       0       0
       0       0       0       0       0       0       0       0
       0       0       0       0       0       0       0       0
       0       0       0       0       0       0       0       0
       0       0       0       0       0       0       0       0
       0       0       0       0       0       0       0       0
       0       0       0       0       0       0       0       0
       0       0       0       0       0       0       0       0
       0       0       0       0       0       0       0       0
       0       0       0       0       0       0       0       0
       0       0       0       0       0       0       0       0
       0       0       0       0       0       0       0       0
       0       0       0       0       0       0       0       0
       0       0       0       0       0       0       0       0
       0       0       0       0       0       0       0       0
       0       0       0       0       0       0       0       0
       0       0       0       0       0       0       0       0
       0       0       0       0       0       0       0       0
       0       0       0       0       0       0       0       0
       0       0       0       0       0       0       0       0
       0       0       0       0       0       0       0       0
       0       0       0       0       0       0       0       0
       0       0       0       0       0       0       0       0
       0       0       0       0       0       0       0       0
       0       0       0       0       0       0       0       0
       0       0       0       0       0       0       0       0
       0       0       0       0       0       0       0       0
       0       0       0       0       0       0       0       0
       0       0       0       0       0       0       0       0
       0       0       0       0       0       0       0       0
       0       0       0       0       0       0       0       0
       0       0       0       0       0       0       0       0
       0       0       0       0       0       0       0       0
       0       0       0       0       0       0       0       0
       0       0       0       0       0       0       0       0
       0       0       0       0       0       0       0       0
       0       0       0       0       0       0       0       0
       0       0       0       0       0       0       0       0
       0       0       0       0       0       0       0       0
       0       0       0       0       0       0       0       0
       0       0       0       0       0       0       0       0
       0       0       0       0       0       0       0       0
       0       0       0       0       0       0       0       0
       0       0       0       0       0       0       0       0
       0       0       0       0       0       0       0       0
       0       0       0       0       0       0       0       0
       0       0       0       0       0       0       0       0
       0       0       0       0       0       0       0       0
       0       0       0       0       0       0       0       0
       0       0       0       0       0       0       0       0
       0       0       0       0       0       0       0       0
       0       0       0       0       0       0       0       0
       0       0       0       0       0       0       0       0
       0       0       0       0       0       0       0       0
       0       0       0       0       0       0       0       0
       0       0       0       0       0       0       0       0
       0       0       0       0       0       0       0       0
       0       0       0       0       0       0       0       0
       0       0       0       0       0       0       0       0
       0       0       0       0       0       0       0       0
       0       0       0       0       0       0       0       0
       0       0       0       0       0       0       0       0
       0       0       0       0       0       0       0       0
       0       0       0       0       0       0       0       0
       0       0       0       0       0       0       0       0
       0       0       0       0       0       0       0       0
       0       0       0       0       0       0       0       0
       0       0       0       0       0       0       0       0
       0       0       0       0       0       0       0       0
       0       0       0       0       0       0       0       0
       0       0       0       0       0       0       0       0
       0       0       0       0       0       0       0       0
       0       0       0       0       0       0       0       0
       0       0       0       0       0       0       0       0
       0       0       0       0       0       0       0       0
       0       0       0       0       0       0       0       0
       0       0       0       0       0       0       0       0
       0       0       0       0       0       0       0       0
       0       0       0       0       0       0       0       0
       0       0       0       0       0       0       0       0
       0       0       0       0       0       0       0       0
       0       0       0       0       0       0       0       0
       0       0       0       0       0       0       0       0
       0       0       0       0       0       0       0       0
       0       0       0       0       0       0       0       0
       0       0       0       0       0       0       0       0
       0       0       0       0       0       0       0       0
       0       0       0       0       0       0       0       0
       0       0       0       0       0       0       0       0
       0       0       0       0       0       0       0       0
       0       0       0       0       0       0       0       0
       0       0       0       0       0       0       0       0
       0       0       0       0       0       0       0       0
       0       0       0       0       0       0       0       0
       0       0       0       0       0       0       0       0
       0       0       0       0       0       0       0       0
       0       0       0       0       0       0       0       0
       0       0       0       0       0       0       0       0
       0       0       0       0       0       0       0       0
       0       0       0       0       0       0       0       0
       0       0       0       0       0       0       0       0
       0       0       0       0       0       0       0       0
       0       0       0       0       0       0       0       0
       0       0       0       0       0       0       0       0
       0       0       0       0       0       0       0       0
       0       0       0       0       0       0       0       0
       0       0       0       0       0       0       0       0
       0       0       0       0       0       0       0       0
       0       0       0       0       0       0       0       0
       0       0       0       0       0       0       0       0
       0       0       0       0       0       0       0       0
       0       0       0       0       0       0       0       0
       0       0       0       0       0       0       0       0
       0       0       0       0       0       0       0       0
       0       0       0       0       0       0       0       0
       0       0       0       0       0       0       0       0
       0       0       0       0       0       0       0       0
       0       0       0       0       0       0       0       0
       0       0       0       0       0       0       0       0
       0       0       0       0       0       0       0       0
       0       0       0       0       0       0       0       0
       0       0       0       0       0       0       0       0
       0       0       0       0       0       0       0       0
       0       0       0       0       0       0       0       0
       0       0       0       0       0       0       0       0
       0       0       0       0       0       0       0       0
       0       0       0       0       0       0       0       0
       0       0       0       0       0       0       0       0
       0       0       0       0       0       0       0       0
       0       0       0       0       0       0       0       0
       0       0       0       0       0       0       0       0
       0       0       0       0       0       0       0       0
       0       0       0       0       0       0       0       0
       0       0       0       0       0       0       0       0
       0       0       0       0       0       0       0       0
       0       0       0       0       0       0       0       0
       0       0       0       0       0       0       0       0
       0       0       0       0       0       0       0       0
       0       0       0       0       0       0       0       0
       0       0       0       0       0       0       0       0
       0       0       0       0       0       0       0       0
       0       0       0       0       0       0       0       0
       0       0       0       0       0       0       0       0
       0       0       0       0       0       0       0       0
       0       0       0       0       0       0       0       0
       0       0       0       0       0       0       0       0
       0       0       0       0       0       0       0       0
       0       0       0       0       0       0       0       0
       0       0       0       0       0       0       0       0
       0       0       0       0       0       0       0       0
       0       0       0       0       0       0       0       0
       0       0       0       0       0       0       0       0
       0       0       0       0       0       0       0       0
       0       0       0       0       0       0       0       0
       0       0       0       0       0       0       0       0
       0       0       0       0       0       0       0       0
       0       0       0       0       0       0       0       0
       0       0       0       0       0       0       0       0
       0       0       0       0       0       0       0       0
       0       0       0       0       0       0       0       0
       0       0       0       0       0       0       0       0
       0       0       0       0       0       0       0       0
       0       0       0       0       0       0       0       0
       0       0       0       0       0       0       0       0
       0       0       0       0       0       0       0       0
       0       0       0       0       0       0       0       0
       0       0       0       0       0       0       0       0
       0       0       0       0       0       0       0       0
       0       0       0       0       0       0       0       0
       0       0       0       0       0       0       0       0
       0       0       0       0       0       0       0       0
       0       0       0       0       0       0       0       0
       0       0       0       0       0       0       0       0
       0       0       0       0       0       0       0       0
       0       0       0       0       0       0       0       0
       0       0       0       0       0       0       0       0
       0       0       0       0       0       0       0       0
       0       0       0       0       0       0       0       0
       0       0       0       0       0       0       0       0
       0       0       0       0       0       0       0       0
       0       0       0       0       0       0       0       0
       0       0       0       0       0       0       0       0
       0       0       0       0       0       0       0       0
       0       0       0       0       0       0       0       0
       0       0       0       0       0       0       0       0
       0       0       0       0       0       0       0       0
       0       0       0       0       0       0       0       0
       0       0       0       0       0       0       0       0
       0       0       0       0       0       0       0       0
       0       0       0       0       0       0       0       0
       0       0       0       0       0       0       0       0
       0       0       0       0       0       0       0       0
       0       0       0       0       0       0       0       0
       0       0       0       0       0       0       0       0
       0       0       0       0       0       0       0       0
       0       0       0       0       0       0       0       0
       0       0       0       0       0       0       0       0
       0       0       0       0       0       0       0       0
       0       0       0       0       0       0       0       0
       0       0       0       0       0       0       0       0
       0       0       0       0       0       0       0       0
       0       0       0       0       0       0       0       0
       0       0       0       0       0       0       0       0
       0       0       0       0       0       0       0       0
       0       0       0       0       0       0       0       0
       0       0       0       0       0       0       0       0
       0       0       0       0       0       0       0       0
       0       0       0       0       0       0       0       0
       0       0       0       0       0       0       0       0
       0       0       0       0       0       0       0       0
       0       0       0       0       0       0       0       0
       0       0       0       0       0       0       0       0
       0       0       0       0       0       0       0       0
       0       0       0       0       0       0       0       0
       0       0       0       0       0       0       0       0
       0       0       0       0       0       0       0       0
       0       0       0       0       0       0       0       0
       0       0       0       0       0       0       0       0
       0       0       0       0       0       0       0       0
       0       0       0       0       0       0       0       0
       0       0       0       0       0       0       0       0
       0       0       0       0       0       0       0       0
       0       0       0       0       0       0       0       0
       0       0       0       0       0       0       0       0
       0       0       0       0       0       0       0       0
       0       0       0       0       0       0       0       0
       0       0       0       0       0       0       0       0
       0       0       0       0       0       0       0       0
       0       0       0       0       0       0       0       0
       0       0       0       0       0       0       0       0
       0       0       0       0       0       0       0       0
       0       0       0       0       0       0       0       0
       0       0       0       0       0       0       0       0
       0       0       0       0       0       0       0       0
       0       0       0       0       0       0       0       0
       0       0       0       0       0       0       0       0
       0       0       0       0       0       0       0       0
       0       0       0       0       0       0       0       0
       0       0       0       0       0       0       0       0
       0       0       0       0       0       0       0       0
       0       0       0       0       0       0       0       0
       0       0       0       0       0       0       0       0
       0       0       0       0       0       0       0       0
       0       0       0       0       0       0       0       0
       0       0       0       0       0       0       0       0
       0       0       0       0       0       0       0       0
       0       0       0       0       0       0       0       0
       0       0       0       0       0       0       0       0
       0       0       0       0       0       0       0       0
       0       0       0       0       0       0       0       0
       0       0       0       0       0       0       0       0
       0       0       0       0       0       0       0       0
       0       0       0       0       0       0       0       0
       0       0       0       0       0       0       0       0
       0       0       0       0       0       0       0       0
       0       0       0       0       0       0       0       0
       0       0       0       0       0       0       0       0
       0       0       0       0       0       0       0       0
       0       0       0       0       0       0       0       0
       0       0       0       0       0       0       0       0
       0       0       0       0       0       0       0       0
       0       0       0       0       0       0       0       0
       0       0       0       0       0       0       0       0
       0       0       0       0       0       0       0       0
       0       0       0       0       0       0       0       0
       0       0       0       0       0       0       0       0
       0       0       0       0       0       0       0       0
       0       0       0       0       0       0       0       0
       0       0       0       0       0       0       0       0
       0       0       0       0       0       0       0       0
       0       0       0       0       0       0       0       0
       0       0       0       0       0       0       0       0
       0       0       0       0       0       0       0       0
       0       0       0       0       0       0       0       0
       0       0       0       0       0       0       0       0
       0       0       0       0       0       0       0       0
       0       0       0       0       0       0       0       0
       0       0       0       0       0       0       0       0
       0       0       0       0       0       0       0       0
       0       0       0       0       0       0       0       0
       0       0       0       0       0       0       0       0
       0       0       0       0       0       0       0       0
       0       0       0       0       0       0       0       0
       0       0       0       0       0       0       0       0
       0       0       0       0       0       0       0       0
       0       0       0       0       0       0       0       0
       0       0       0       0       0       0       0       0
       0       0       0       0       0       0       0       0
       0       0       0       0       0       0       0       0
       0       0       0       0       0       0       0       0
       0       0       0       0       0       0       0       0
       0       0       0       0       0       0       0       0
       0       0       0       0       0       0       0       0
       0       0       0       0       0       0       0       0
       0       0       0       0       0       0       0       0
       0       0       0       0       0       0       0       0
       0       0       0       0       0       0       0       0
       0       0       0       0       0       0       0       0
       0       0       0       0       0       0       0       0
       0       0       0       0       0       0       0       0
       0       0       0       0       0       0       0       0
       0       0       0       0       0       0       0       0
       0       0       0       0       0       0       0       0
       0       0       0       0       0       0       0       0
       0       0       0       0       0       0       0       0
       0       0       0       0       0       0       0       0
       0       0       0       0       0       0       0       0
       0       0       0       0       0       0       0       0
       0       0       0       0       0       0       0       0
       0       0       0       0       0       0       0       0
       0       0       0       0       0       0       0       0
       0       0       0       0       0       0       0       0
       0       0       0       0       0       0       0       0
       0       0       0       0       0       0       0       0
       0       0       0       0       0       0       0       0
       0       0       0       0       0       0       0       0
       0       0       0       0       0       0       0       0
       0       0       0       0       0       0       0       0
       0       0       0       0       0       0       0       0
       0       0       0       0       0       0       0       0
       0       0       0       0       0       0       0       0
       0       0       0       0       0       0       0       0
       0       0       0       0       0       0       0       0
       0       0       0       0       0       0       0       0
       0       0       0       0       0       0       0       0
       0       0       0       0       0       0       0       0
       0       0       0       0       0       0       0       0
       0       0       0       0       0       0       0       0
       0       0       0       0       0       0       0       0
       0       0       0       0       0       0       0       0
       0       0       0       0       0       0       0       0
       0       0       0       0       0       0       0       0
       0       0       0       0       0       0       0       0
       0       0       0       0       0       0       0       0
       0       0       0       0       0       0       0       0
       0       0       0       0       0       0       0       0
       0       0       0       0       0       0       0       0
       0       0       0       0       0       0       0       0
       0       0       0       0       0       0       0       0
       0       0       0       0       0       0       0       0
       0       0       0       0       0       0       0       0
       0       0       0       0       0       0       0       0
       0       0       0       0       0       0       0       0
       0       0       0       0       0       0       0       0
       0       0       0       0       0       0       0       0
       0       0       0       0       0       0       0       0
       0       0       0       0       0       0       0       0
       0       0       0       0       0       0       0       0
       0       0       0       0       0       0       0       0
       0       0       0       0       0       0       0       0
       0       0       0       0       0       0       0       0
       0       0       0       0       0       0       0       0
       0       0       0       0       0       0       0       0
       0       0       0       0       0       0       0       0
       0       0       0       0       0       0       0       0
       0       0       0       0       0       0       0       0
       0       0       0       0       0       0       0       0
       0       0       0       0       0       0       0       0
       0       0       0       0       0       0       0       0
       0       0       0       0       0       0       0       0
       0       0       0       0       0       0       0       0
       0       0       0       0       0       0       0       0
       0       0       0       0       0       0       0       0
       0       0       0       0       0       0       0       0
       0       0       0       0       0       0       0       0
       0       0       0       0       0       0       0       0
       0       0       0       0       0       0       0       0
       0       0       0       0       0       0       0       0
       0       0       0       0       0       0       0       0
       0       0       0       0       0       0       0       0
       0       0       0       0       0       0       0       0
       0       0       0       0       0       0       0       0
       0       0       0       0       0       0       0       0
       0       0       0       0       0       0       0       0
       0       0       0       0       0       0       0       0
       0       0       0       0       0       0       0       0
       0       0       0       0       0       0       0       0
       0       0       0       0       0       0       0       0
       0       0       0       0       0       0       0       0
       0       0       0       0       0       0       0       0
       0       0       0       0       0       0       0       0
       0       0       0       0       0       0       0       0
       0       0       0       0       0       0       0       0
       0       0       0       0       0       0       0       0
       0       0       0       0       0       0       0       0
       0       0       0       0       0       0       0       0
       0       0       0       0       0       0       0       0
       0       0       0       0       0       0       0       0
       0       0       0       0       0       0       0       0
       0       0       0       0       0       0       0       0
       0       0       0       0       0       0       0       0
       0       0       0       0       0       0       0       0
       0       0       0       0       0       0       0       0
       0       0       0       0       0       0       0       0
       0       0       0       0       0       0       0       0
       0       0       0       0       0       0       0       0
       0       0       0       0       0       0       0       0
       0       0       0       0       0       0       0       0
       0       0       0       0       0       0       0       0
       0       0       0       0       0       0       0       0
       0       0       0       0       0       0       0       0
       0       0       0       0       0       0       0       0
       0       0       0       0       0       0       0       0
       0       0       0       0       0       0       0       0
       0       0       0       0       0       0       0       0
       0       0       0       0       0       0       0       0
       0       0       0       0       0       0       0       0
       0       0       0       0       0       0       0       0
       0       0       0       0       0       0       0       0
       0       0       0       0       0       0       0       0
       0       0       0       0       0       0       0       0
       0       0       0       0       0       0       0       0
       0       0       0       0       0       0       0       0
       0       0       0       0       0       0       0       0
       0       0       0       0       0       0       0       0
       0       0       0       0       0       0       0       0
       0       0       0       0       0       0       0       0
       0       0       0       0       0       0       0       0
       0       0       0       0       0       0       0       0
       0       0       0       0       0       0       0       0
       0       0       0       0       0       0       0       0
       0       0       0       0       0       0       0       0
       0       0       0       0       0       0       0       0
       0       0       0       0       0       0       0       0
       0       0       0       0       0       0       0       0
       0       0       0       0       0       0       0       0
       0       0       0       0       0       0       0       0
       0       0       0       0       0       0       0       0
       0       0       0       0       0       0       0       0
       0       0       0       0       0       0       0       0
       0       0       0       0       0       0       0       0
       0       0       0       0

       1       0 !NGRP
       0       0       0

      14 !NCRTERM: cross-terms
       5       7       9      22       7       9      22      24
      22      24      26      32      24      26      32      34
      32      34      38      46      34      38      46      48
      46      48      50      56      48      50      56      58
      56      58      60      77      58      60      77      79
      77      79      81      99      79      81      99     101
      99     101     103     121     101     103     121     123
     121     123     125     131     123     125     131     133
     131     133     135     141     133     135     141     143
     141     143     145     163     143     145     163     165
     163     165     167     185     165     167     185     187
     185     187     189     204     187     189     204     206
     204     206     208     214     206     208     214     216
     214     216     218     229     216     218     229     231


